,ID,Name,InChI,InChIKey,SMILES,Solubility,SD,Ocurrences,Group,MolWt,MolLogP,MolMR,HeavyAtomCount,NumHAcceptors,NumHDonors,NumHeteroatoms,NumRotatableBonds,NumValenceElectrons,NumAromaticRings,NumSaturatedRings,NumAliphaticRings,RingCount,TPSA,LabuteASA,BalabanJ,BertzCT
8548,D-1074,benznidazole,"InChI=1S/C12H12N4O3/c17-11(14-8-10-4-2-1-3-5-10)9-15-7-6-13-12(15)16(18)19/h1-7H,8-9H2,(H,14,17)",CULUWZNBISUWAS-UHFFFAOYSA-N,[O-][N+](=O)c1nccn1CC(=O)NCc2ccccc2,-2.813,0.0,1.0,G1,260.253,1.1077,67.1701,19.0,5.0,1.0,7.0,5.0,98.0,2.0,0.0,0.0,2.0,90.06,108.5864636,1.910231901,579.6702486
3658,B-3,meperidine,"InChI=1S/C15H21NO2.ClH/c1-3-18-14(17)15(9-11-16(2)12-10-15)13-7-5-4-6-8-13;/h4-8H,3,9-12H2,1-2H3;1H",WCNLCIJMFAJCPX-UHFFFAOYSA-N,[H+].[Cl-].CCOC(=O)C1(CCN(C)CC1)c2ccccc2,-1.6368,0.0,1.0,G1,283.799,-0.6704,72.596,19.0,3.0,0.0,4.0,3.0,106.0,1.0,1.0,1.0,2.0,29.54,122.3828436,1.8e-06,405.5943573
2097,A-3462,beta-alanine,"InChI=1S/C3H7NO2/c4-2-1-3(5)6/h1-2,4H2,(H,5,6)",UCMIRNVEIXFBKS-UHFFFAOYSA-N,NCCC(O)=O,0.786548045,0.0,1.0,G1,89.094,-0.5802,21.3072,6.0,2.0,2.0,3.0,2.0,36.0,0.0,0.0,0.0,0.0,63.32,35.76478181,2.83125711,52.7548875
3797,B-229,"3-pentanol, 3-methyl-, carbamate","InChI=1S/C7H15NO2/c1-4-7(3,5-2)10-6(8)9/h4-5H2,1-3H3,(H2,8,9)",SLWGJZPKHAXZQL-UHFFFAOYSA-N,CCC(C)(CC)OC(N)=O,-1.5599,0.0,1.0,G1,145.202,1.6604,39.6554,10.0,2.0,1.0,3.0,3.0,60.0,0.0,0.0,0.0,0.0,52.32,61.54386174,3.924503443,118.7745144
9800,G-688,Flucytosine,"InChI=1S/C4H4FN3O/c5-2-1-7-4(9)8-3(2)6/h1H,(H3,6,7,8,9)",XRECTZIEBJDKEO-UHFFFAOYSA-N,Nc1nc(=O)[nH]cc1F,-0.972,0.048096456,3.0,G5,129.094,-0.5088,29.2281,9.0,3.0,2.0,5.0,0.0,48.0,1.0,0.0,0.0,1.0,71.77,49.53764728,3.336092887,268.7604123
5034,B-1856,"2,2-dimethyl-1-pentanol","InChI=1S/C7H16O/c1-4-5-7(2,3)6-8/h8H,4-6H2,1-3H3",QTOMCRXZFDHJOL-UHFFFAOYSA-N,CCCC(C)(C)CO,-1.4391,0.509975339,3.0,G4,116.204,1.805,35.7748,8.0,1.0,1.0,1.0,3.0,50.0,0.0,0.0,0.0,0.0,20.23,51.72313747,3.373381553,57.40716557
7726,C-1373,"n,o-diacetyl-6-deoxyacyclovir","InChI=1S/C12H15N5O4/c1-8(18)15-12-13-5-10-11(16-12)17(6-14-10)7-20-3-4-21-9(2)19/h5-6H,3-4,7H2,1-2H3,(H,13,15,16,18)",NZSQZKSAMAZAEC-UHFFFAOYSA-N,CC(=O)NC1=NC2=C(C=N1)N=C[N]2COCCOC(C)=O,-0.73,0.0,1.0,G1,293.283,0.3219,72.2117,21.0,8.0,1.0,9.0,6.0,112.0,2.0,0.0,0.0,2.0,108.23,119.8457351,1.988074404,654.1352463
4833,B-1623,diphenyltin dichloride,InChI=1S/2C6H5.2ClH.Sn/c2*1-2-4-6-5-3-1;;;/h2*1-5H;2*1H;/q;;;;+2/p-2,ISXUHJXWYNONDI-UHFFFAOYSA-L,Cl[Sn](Cl)(c1ccccc1)c2ccccc2,-3.8373,0.0,1.0,G1,343.829,2.7206,69.612,15.0,0.0,0.0,3.0,2.0,76.0,2.0,0.0,0.0,2.0,0.0,101.1493088,2.442186511,384.3898118
7320,C-412,monolinuron;  3-(4-chlorophenyl)-1-methoxy-1-methylurea,"InChI=1S/C9H11ClN2O2/c1-12(14-2)9(13)11-8-5-3-7(10)4-6-8/h3-6H,1-2H3,(H,11,13)",LKJPSUCKSLORMF-UHFFFAOYSA-N,CON(C)C(=O)NC1=CC=C(Cl)C=C1,-2.47,0.084440959,3.0,G5,214.652,2.3651,55.2427,14.0,2.0,1.0,5.0,2.0,76.0,1.0,0.0,0.0,1.0,41.57,87.36829737,2.604870972,313.0929223
1435,A-2476,methyl 2-({4-[2-(2-cyano-4-nitrophenyl)diazen-1-yl]-3-acetamidophenyl}(2-methoxy-2-oxoethyl)amino)acetate,"InChI=1S/C21H20N6O7/c1-13(28)23-19-9-15(26(11-20(29)33-2)12-21(30)34-3)4-7-18(19)25-24-17-6-5-16(27(31)32)8-14(17)10-22/h4-9H,11-12H2,1-3H3,(H,23,28)",DSYAJHRMVXOBRK-UHFFFAOYSA-N,COC(=O)CN(CC(=O)OC)c1ccc(N=Nc2ccc(cc2C#N)[N+]([O-])=O)c(NC(C)=O)c1,-5.193519738,0.0,1.0,G1,468.426,2.99268,118.9781,34.0,11.0,1.0,13.0,9.0,176.0,2.0,0.0,0.0,2.0,176.59,193.2866622,2.464719622,1170.619975
5682,B-2579,"2-butanol, 3,3-dimethyl-, (.+-.)-","InChI=1S/C6H14O/c1-5(7)6(2,3)4/h5,7H,1-4H3",DFOXKPDFWGNLJU-UHFFFAOYSA-N,CC(O)C(C)(C)C,-0.6238,0.0,1.0,G1,102.177,1.4133,31.1358,7.0,1.0,1.0,1.0,0.0,44.0,0.0,0.0,0.0,0.0,20.23,45.35819535,3.541196965,49.69058447
600,A-1060,"2-amino-3,5-dimethylbenzene-1-sulfonic acid","InChI=1S/C8H11NO3S/c1-5-3-6(2)8(9)7(4-5)13(10,11)12/h3-4H,9H2,1-2H3,(H,10,11,12)",CFCXQQUQLZIZPI-UHFFFAOYSA-N,Cc1cc(C)c(N)c(c1)[S](O)(=O)=O,-1.819543504,0.0,1.0,G1,201.247,1.13234,50.143,13.0,3.0,2.0,5.0,1.0,72.0,1.0,0.0,0.0,1.0,80.39,77.12981406,3.557870846,436.9475157
1473,A-2528,"1,1-bis(tert-butylperoxy)cyclohexane","InChI=1S/C14H28O4/c1-12(2,3)15-17-14(10-8-7-9-11-14)18-16-13(4,5)6/h7-11H2,1-6H3",HSLFISVKRDQEBY-UHFFFAOYSA-N,CC(C)(C)OOC1(CCCCC1)OOC(C)(C)C,-5.386213837,0.014691889,2.0,G3,260.374,4.1402,69.662,18.0,4.0,0.0,4.0,4.0,108.0,0.0,1.0,1.0,1.0,36.92,110.7904389,2.57430315,223.5000562
8318,C-2332,n1-(1-allyl-2-oxopyrimidin-4-yl)sulfanilamide;  1-allyl-4-sulfapyrimidin-2-one,"InChI=1S/C13H14N4O3S/c1-2-8-17-9-7-12(15-13(17)18)16-21(19,20)11-5-3-10(14)4-6-11/h2-7,9H,1,8,14H2,(H,15,16,18)",VIAUKNFHMJPBHP-UHFFFAOYSA-N,NC1=CC=C(C=C1)[S](=O)(=O)NC2=NC(=O)N(CC=C)C=C2,-3.11,0.0,1.0,G1,306.347,0.8123,80.3569,21.0,6.0,2.0,8.0,5.0,110.0,2.0,0.0,0.0,2.0,107.08,121.355039,2.282904078,810.0551714
8056,C-1956,n-[2-(benzoyloxy)acetyl]-2-ethylpiperidine,"InChI=1S/C16H21NO3/c1-2-14-10-6-7-11-17(14)15(18)12-20-16(19)13-8-4-3-5-9-13/h3-5,8-9,14H,2,6-7,10-12H2,1H3",WXHDYGRKHGIEOF-UHFFFAOYSA-N,CCC1CCCCN1C(=O)COC(=O)C2=CC=CC=C2,-2.72,0.0,1.0,G1,275.348,2.6345,76.3675,20.0,3.0,0.0,4.0,4.0,108.0,1.0,1.0,1.0,2.0,46.61,119.2714162,1.866867576,458.049606
5705,B-2604,"4-heptanol, 2-methyl-","InChI=1S/C8H18O/c1-4-5-8(9)6-7(2)3/h7-9H,4-6H2,1-3H3",QXPLZEKPCGUWEM-UHFFFAOYSA-N,CCCC(O)CC(C)C,-1.9079,0.0,1.0,G1,130.231,2.1935,40.3698,9.0,1.0,1.0,1.0,4.0,56.0,0.0,0.0,0.0,0.0,20.23,58.08807958,3.151251389,59.58797504
9731,F-1209,N-methyl-3-phenyl-3-[4-(trifluoromethyl)phenoxy]propan-1-amine,"InChI=1S/C17H18F3NO/c1-21-12-11-16(13-5-3-2-4-6-13)22-15-9-7-14(8-10-15)17(18,19)20/h2-10,16,21H,11-12H2,1H3",RTHCYVBBDHJXIQ-UHFFFAOYSA-N,CNCCC(OC1=CC=C(C(F)(F)F)C=C1)C1=CC=CC=C1,-1.59,0.0,1.0,G1,309.331,4.435,79.7987,22.0,2.0,1.0,5.0,6.0,118.0,2.0,0.0,0.0,2.0,21.26,127.4732215,2.13045605,566.7079635
5338,B-2188,"2-propanone, 1,1-diethoxy-","InChI=1S/C7H14O3/c1-4-9-7(6(3)8)10-5-2/h7H,4-5H2,1-3H3",SDMOBEHDSJVJHU-UHFFFAOYSA-N,CCOC(OCC)C(C)=O,-0.2059,0.0,1.0,G1,146.186,0.9745,37.721,10.0,3.0,0.0,3.0,5.0,60.0,0.0,0.0,0.0,0.0,35.53,61.31751627,3.609578053,95.02434166
5444,B-2308,"3-furancarboxylic acid, tetrahydro-3-methyl-2-ox","InChI=1S/C6H8O4/c1-6(4(7)8)2-3-10-5(6)9/h2-3H2,1H3,(H,7,8)",OCGGZLKMMJSXBM-UHFFFAOYSA-N,CC1(CCOC1=O)C(O)=O,0.8412,0.0,1.0,G1,144.126,0.0242,31.3188,10.0,3.0,1.0,4.0,1.0,56.0,0.0,1.0,1.0,1.0,63.6,57.78895363,2.855823065,186.1868377
5335,B-2185,"benzenepropanoic acid, .alpha.,.beta.-dihydroxy-","InChI=1S/C9H10O4/c10-7(8(11)9(12)13)6-4-2-1-3-5-6/h1-5,7-8,10-11H,(H,12,13)",BNOUUNAFHCJIJD-UHFFFAOYSA-N,OC(C(O)c1ccccc1)C(O)=O,-0.3063,0.0,1.0,G1,182.175,0.1655,45.0444,13.0,3.0,3.0,4.0,3.0,70.0,1.0,0.0,0.0,1.0,77.76,75.07045282,2.792516902,282.9259928
4810,B-1597,heptyl p-hydroxybenzoate,"InChI=1S/C14H20O3/c1-2-3-4-5-6-11-17-14(16)12-7-9-13(15)10-8-12/h7-10,15H,2-6,11H2,1H3",ZTJORNVITHUQJA-UHFFFAOYSA-N,CCCCCCCOC(=O)c1ccc(O)cc1,-4.0725,0.0,1.0,G1,236.311,3.5194,67.1483,17.0,3.0,1.0,3.0,7.0,94.0,1.0,0.0,0.0,1.0,46.53,102.4202411,2.187783399,329.8254883
4169,B-816,dicrotophos,"InChI=1S/C8H16NO5P/c1-7(6-8(10)9(2)3)14-15(11,12-4)13-5/h6H,1-5H3/b7-6+",VEENJGZXVHKXNB-VOTSOKGWSA-N,CO[P](=O)(OC)OC(/C)=C/C(=O)N(C)C,0.6249,0.0,1.0,G1,237.192,1.3959,55.1605,15.0,5.0,0.0,7.0,5.0,88.0,0.0,0.0,0.0,0.0,65.07,89.41584493,4.546443218,291.4071542
7626,C-1183,"methoxycarbonylmethyl  2,2-diethylmalonurate","InChI=1S/C11H18N2O6/c1-4-11(5-2,8(15)13-10(12)17)9(16)19-6-7(14)18-3/h4-6H2,1-3H3,(H3,12,13,15,17)",BZOKLJVQXZIUTK-UHFFFAOYSA-N,CCC(CC)(C(=O)NC(N)=O)C(=O)OCC(=O)OC,-2.01,0.0,1.0,G1,274.273,-0.2961,63.7161,19.0,6.0,2.0,8.0,6.0,108.0,0.0,0.0,0.0,0.0,124.79,110.1516039,4.955589085,375.3817
9545,F-955,"4-hydroxy-7,7-dioxo-5,6-dihydro-4H-thieno[5,4-b]thiopyran-2-sulfonamide","InChI=1S/C7H9NO5S3/c8-16(12,13)6-3-4-5(9)1-2-15(10,11)7(4)14-6/h3,5,9H,1-2H2,(H2,8,12,13)",MAZCFXDIYXGRAD-UHFFFAOYSA-N,NS(=O)(=O)C1=CC2=C(S1)S(=O)(=O)CCC2O,-1.65,0.145,2.0,G3,283.352,-0.3937,57.3218,16.0,6.0,2.0,9.0,1.0,90.0,1.0,0.0,1.0,2.0,114.53,96.6810603,2.711600103,626.9796172
5502,B-2374,ancymidol,"InChI=1S/C15H16N2O2/c1-19-14-6-4-12(5-7-14)15(18,11-2-3-11)13-8-16-10-17-9-13/h4-11,18H,2-3H2,1H3",HUTDUHSNJYTCAR-UHFFFAOYSA-N,COc1ccc(cc1)C(O)(C2CC2)c3cncnc3,-2.5959,0.0,1.0,G1,256.305,2.1311,70.7488,19.0,4.0,1.0,4.0,4.0,98.0,2.0,1.0,1.0,3.0,55.24,111.6544517,2.045722087,552.1180744
1981,A-3264,"1,2,4-triazole","InChI=1S/C2H3N3/c1-3-2-5-4-1/h1-2H,(H,3,4,5)",NSPMIYGKQJPBQR-UHFFFAOYSA-N,[nH]1cncn1,1.005827448,0.00911241,2.0,G3,69.067,-0.1953,16.3827,5.0,2.0,1.0,3.0,0.0,26.0,1.0,0.0,0.0,1.0,41.57,29.04831307,3.125,61.36993061
6778,B-4008,"2,6-dimethylnaphthalene","InChI=1S/C12H12/c1-9-3-5-12-8-10(2)4-6-11(12)7-9/h3-8H,1-2H3",YGYNBBAUIYTWBF-UHFFFAOYSA-N,Cc1ccc2cc(C)ccc2c1,-4.8927,0.09365,2.0,G3,156.228,3.45664,53.422,12.0,0.0,0.0,0.0,0.0,60.0,2.0,0.0,0.0,2.0,0.0,72.84295188,2.786653081,372.0578662
9672,F-1137,4-chloro-2-(furan-2-ylmethylamino)-5-sulfamoylbenzoic acid,"InChI=1S/C12H11ClN2O5S/c13-9-5-10(15-6-7-2-1-3-20-7)8(12(16)17)4-11(9)21(14,18)19/h1-5,15H,6H2,(H,16,17)(H2,14,18,19)",ZZUFCTLCJUWOSV-UHFFFAOYSA-N,NS(=O)(=O)C1=C(Cl)C=C(NCC2=CC=CO2)C(C(=O)O)=C1,-3.83,0.336286703,3.0,G5,330.749,1.8907,75.8192,21.0,5.0,3.0,9.0,5.0,112.0,2.0,0.0,0.0,2.0,122.63,124.9222617,2.406625749,771.1955159
6653,B-3739,undecanoic acid,"InChI=1S/C11H22O2/c1-2-3-4-5-6-7-8-9-10-11(12)13/h2-10H2,1H3,(H,12,13)",ZDPHROOEEOARMN-UHFFFAOYSA-N,CCCCCCCCCCC(O)=O,-3.5525,0.12625,2.0,G3,186.295,3.6018,54.8628,13.0,1.0,1.0,2.0,9.0,78.0,0.0,0.0,0.0,0.0,37.3,81.34442802,2.872918759,121.2586864
6176,B-3136,"2,2',4,6'-tetrachlorobiphenyl",InChI=1S/C12H6Cl4/c13-7-4-5-8(11(16)6-7)12-9(14)2-1-3-10(12)15/h1-6H,WVHNUGRFECMVLQ-UHFFFAOYSA-N,Clc1ccc(c(Cl)c1)c2c(Cl)cccc2Cl,-6.65,0.0,1.0,G1,291.992,5.9672,71.918,16.0,0.0,0.0,4.0,1.0,82.0,2.0,0.0,0.0,2.0,0.0,113.7015622,2.676215702,514.2871241
9253,F-574,1-diethylaminopropan-2-yl 4-aminobenzoate,"InChI=1S/C14H22N2O2/c1-4-16(5-2)10-11(3)18-14(17)12-6-8-13(15)9-7-12/h6-9,11H,4-5,10,15H2,1-3H3",ZUNAJHZCXSUXGT-UHFFFAOYSA-N,CCN(CC)CC(C)OC(=O)C1=CC=C(N)C=C1,-2.35,0.0,1.0,G1,250.342,2.1559,73.5199,18.0,4.0,1.0,4.0,6.0,100.0,1.0,0.0,0.0,1.0,55.56,108.7257317,2.510459436,371.8853108
811,A-1409,1-(propan-2-yl)naphthalene; 2-(propan-2-yl)naphthalene,"InChI=1S/C13H14/c1-10(2)12-9-5-7-11-6-3-4-8-13(11)12/h3-10H,1-2H3",PMPBFICDXLLSRM-UHFFFAOYSA-N,CC(C)c1cccc2ccccc12,-4.782393555,0.0,1.0,G1,170.255,3.9632,58.037,13.0,0.0,0.0,0.0,1.0,66.0,2.0,0.0,0.0,2.0,0.0,79.20789399,2.756733762,407.8127537
9311,F-644,4-nitro-3-phenylphenol,"InChI=1S/C12H9NO3/c14-10-6-7-12(13(15)16)11(8-10)9-4-2-1-3-5-9/h1-8,14H",LHJUVPXOXCFLCH-UHFFFAOYSA-N,C1=CC=C(C=C1)C2=C(C=CC(=C2)O)[N+](=O)[O-],-3.63,0.0,1.0,G1,215.208,2.9674,60.1972,16.0,3.0,1.0,4.0,2.0,80.0,2.0,0.0,0.0,2.0,63.37,91.9357068,2.630135699,523.0420116
6719,B-3874,p-nitrobenzaldehyde,InChI=1S/C7H5NO3/c9-5-6-1-3-7(4-2-6)8(10)11/h1-5H,BXRFQSNOROATLV-UHFFFAOYSA-N,[O-][N+](=O)c1ccc(C=O)cc1,-1.8101,0.0,1.0,G1,151.121,1.4073,38.4839,11.0,3.0,0.0,4.0,2.0,56.0,1.0,0.0,0.0,1.0,60.21,62.61084306,3.000886646,278.2420898
785,A-1363,"1,1-dimethoxyoctane","InChI=1S/C10H22O2/c1-4-5-6-7-8-9-10(11-2)12-3/h10H,4-9H2,1-3H3",BZOOCKAFKVYAOZ-UHFFFAOYSA-N,CCCCCCCC(OC)OC,-2.918005419,0.0,1.0,G1,174.284,2.9658,51.182,12.0,2.0,0.0,2.0,8.0,74.0,0.0,0.0,0.0,0.0,18.46,76.25082052,3.062399017,79.90776467
3905,B-390,"1,2,3-trichloropropane","InChI=1S/C3H5Cl3/c4-1-3(6)2-5/h3H,1-2H2",CFXQEHVMCRXUSD-UHFFFAOYSA-N,ClCC(Cl)CCl,-1.9255,0.0,1.0,G1,147.432,2.0714,31.081,6.0,0.0,0.0,3.0,2.0,38.0,0.0,0.0,0.0,0.0,0.0,52.37893394,2.754184786,25.21928095
232,A-389,3-hydroxynaphthalene-2-carboxylic acid,"InChI=1S/C11H8O3/c12-10-6-8-4-2-1-3-7(8)5-9(10)11(13)14/h1-6,12H,(H,13,14)",ALKYHXVLJMQRLQ-UHFFFAOYSA-N,OC(=O)c1cc2ccccc2cc1O,-3.417245584,0.571333752,2.0,G2,188.182,2.2436,52.5721,14.0,2.0,2.0,3.0,1.0,70.0,2.0,0.0,0.0,2.0,57.53,80.22799937,2.77051081,502.8588453
5090,B-1916,p-acetoxyacetanilide,"InChI=1S/C10H11NO3/c1-7(12)11-9-3-5-10(6-4-9)14-8(2)13/h3-6H,1-2H3,(H,11,12)",UJAOSPFULOFZRR-UHFFFAOYSA-N,CC(=O)Nc1ccc(OC(C)=O)cc1,-1.9076,0.0,1.0,G1,193.202,1.5703,52.0547,14.0,3.0,1.0,4.0,2.0,74.0,1.0,0.0,0.0,1.0,55.4,81.87762319,2.679983362,307.8896729
6094,B-3046,"1,1'-biphenyl, 2,2',4,5',6-pentachloro-",InChI=1S/C12H5Cl5/c13-6-1-2-9(15)8(3-6)12-10(16)4-7(14)5-11(12)17/h1-5H,PQHZWWBJPCNNGI-UHFFFAOYSA-N,Clc1ccc(Cl)c(c1)c2c(Cl)cc(Cl)cc2Cl,-7.47,0.0,1.0,G1,326.437,6.6206,76.928,17.0,0.0,0.0,5.0,1.0,88.0,2.0,0.0,0.0,2.0,0.0,124.0048285,2.721680574,554.0989384
963,A-1674,"(2,4,6-trioxo-1,3,5-triazine-1,3,5(2H,4H,6H)-triyl)tri-2,1-ethanediyl triacrylate","InChI=1S/C18H21N3O9/c1-4-13(22)28-10-7-19-16(25)20(8-11-29-14(23)5-2)18(27)21(17(19)26)9-12-30-15(24)6-3/h4-6H,1-3,7-12H2",YIJYFLXQHDOQGW-UHFFFAOYSA-N,C=CC(=O)OCCN1C(=O)N(CCOC(=O)C=C)C(=O)N(CCOC(=O)C=C)C1=O,-2.451419462,0.0,1.0,G1,423.378,-1.6407,102.69,30.0,12.0,0.0,12.0,12.0,162.0,1.0,0.0,0.0,1.0,144.9,169.4353524,3.23880086,854.3785362
3856,B-320,hexabromobenzene,InChI=1S/C6Br6/c7-1-2(8)4(10)6(12)5(11)3(1)9,CAYGQBVSOZLICD-UHFFFAOYSA-N,Brc1c(Br)c(Br)c(Br)c(Br)c1Br,-9.5374,0.1013,2.0,G3,551.49,6.2616,72.642,12.0,0.0,0.0,6.0,0.0,66.0,1.0,0.0,0.0,1.0,0.0,120.6366888,3.603567451,226.3030902
560,A-999,"1,4-bis[(E)-prop-1-enoxy]cyclohexane 1,4-di(prop-1-enoxy)cyclohexane","InChI=1S/C12H20O2/c1-3-9-13-11-5-7-12(8-6-11)14-10-4-2/h3-4,9-12H,5-8H2,1-2H3/b9-3+,10-4+",TXHDDWGFTSDFEB-LQIBPGRFSA-N,C\C=C\OC1CCC(CC1)O\C=C\C,-3.903732091,0.023371702,2.0,G3,196.29,3.398,57.842,14.0,2.0,0.0,2.0,4.0,80.0,0.0,1.0,1.0,1.0,18.46,86.59566753,2.170007319,166.4984101
7420,C-702,"3,4,4',5-tetrachlorobiphenyl",InChI=1S/C12H6Cl4/c13-9-3-1-7(2-4-9)8-5-10(14)12(16)11(15)6-8/h1-6H,BHWVLZJTVIYLIV-UHFFFAOYSA-N,ClC1=CC=C(C=C1)C2=CC(=C(Cl)C(=C2)Cl)Cl,-7.96,0.0,1.0,G1,291.992,5.9672,71.918,16.0,0.0,0.0,4.0,1.0,82.0,2.0,0.0,0.0,2.0,0.0,113.7015622,2.523933798,494.0371241
3183,A-5266,"O,O-bis(2-methylphenyl) hydrogen dithiophosphate","InChI=1S/C14H15O2PS2/c1-11-7-3-5-9-13(11)15-17(18,19)16-14-10-6-4-8-12(14)2/h3-10H,1-2H3,(H,18,19)",DFVPPGZSXADRCW-UHFFFAOYSA-N,Cc1ccccc1O[P](S)(=S)Oc2ccccc2C,-1.060529965,0.0,1.0,G1,310.38,4.91554,86.885,19.0,3.0,1.0,5.0,4.0,100.0,2.0,0.0,0.0,2.0,18.46,123.6423811,2.179939444,576.8479587
429,A-742,8-aminonaphthalene-2-sulfonic acid,"InChI=1S/C10H9NO3S/c11-10-3-1-2-7-4-5-8(6-9(7)10)15(12,13)14/h1-6H,11H2,(H,12,13,14)",QEZZCWMQXHXAFG-UHFFFAOYSA-N,Nc1cccc2ccc(cc12)[S](O)(=O)=O,-1.682279323,0.0,1.0,G1,223.253,1.6687,58.175,15.0,3.0,2.0,5.0,1.0,78.0,2.0,0.0,0.0,2.0,80.39,87.08159436,2.814655009,619.6001476
3595,A-6022,"sodium; methanolate; 2-methylbenzene-1,3-diamine; methyl 2,3,4,5-tetrachloro-6-cyanobenzoate","InChI=1S/C9H3Cl4NO2.C7H10N2.CH3O.Na/c1-16-9(15)4-3(2-14)5(10)7(12)8(13)6(4)11;1-5-6(8)3-2-4-7(5)9;1-2;/h1H3;2-4H,8-9H2,1H3;1H3;/q;;-1;+1",VYEKNZNEJZKGRI-UHFFFAOYSA-N,[Na+].C[O-].COC(=O)c1c(Cl)c(Cl)c(Cl)c(Cl)c1C#N.Cc2c(N)cccc2N,-7.171667045,0.0,1.0,G1,475.135,1.0984,108.4643,28.0,6.0,2.0,11.0,1.0,146.0,2.0,0.0,0.0,2.0,125.19,205.0929969,0.0,853.6968269
117,A-196,2-[4-(bromomethyl)phenyl]benzonitrile,"InChI=1S/C14H10BrN/c15-9-11-5-7-12(8-6-11)14-4-2-1-3-13(14)10-16/h1-8H,9H2",LFFIEVAMVPCZNA-UHFFFAOYSA-N,BrCc1ccc(cc1)c2ccccc2C#N,-6.656649109,0.0,1.0,G1,272.145,4.12018,69.224,16.0,1.0,0.0,2.0,2.0,78.0,2.0,0.0,0.0,2.0,23.79,103.4785088,2.468747212,523.1767595
6955,B-4273,"2,5-dimethylpyridine","InChI=1S/C7H9N/c1-6-3-4-7(2)8-5-6/h3-5H,1-2H3",XWKFPIODWVPXLX-UHFFFAOYSA-N,Cc1ccc(C)nc1,-0.03,0.2155,2.0,G3,107.156,1.69844,33.711,8.0,1.0,0.0,1.0,0.0,42.0,1.0,0.0,0.0,1.0,12.89,49.38093533,3.032455532,143.2466295
4741,B-1517,"4,4'-oxydi-2-butanol","InChI=1S/C8H18O3/c1-7(9)3-5-11-6-4-8(2)10/h7-10H,3-6H2,1-2H3",AFSYRVDDZGJTIL-UHFFFAOYSA-N,CC(O)CCOCCC(C)O,0.7899,0.0,1.0,G1,162.229,0.5448,43.4146,11.0,3.0,2.0,3.0,6.0,68.0,0.0,0.0,0.0,0.0,49.69,67.99585856,2.909205095,71.40635591
7753,C-1419,"eriodictyol;  3',4',5,7-tetrahydroxyflavanone","InChI=1S/C15H12O6/c16-8-4-11(19)15-12(20)6-13(21-14(15)5-8)7-1-2-9(17)10(18)3-7/h1-5,13,16-19H,6H2",SBHXYTNGIZCORC-UHFFFAOYSA-N,OC1=CC(=C2C(=O)CC(OC2=C1)C3=CC=C(O)C(=C3)O)O,-3.62,0.0,1.0,G1,288.255,2.2155,71.8597,21.0,6.0,4.0,6.0,1.0,108.0,2.0,0.0,1.0,3.0,107.22,119.0294949,2.01392325,737.1839684
8136,C-2080,n-(3-anisyl)anthranilic  acid;   2-(3-methoxyphenylamino)benzoic acid,"InChI=1S/C14H13NO3/c1-18-11-6-4-5-10(9-11)15-13-8-3-2-7-12(13)14(16)17/h2-9,15H,1H3,(H,16,17)",SSRGDXQQJKAWKX-UHFFFAOYSA-N,COC1=CC=CC(=C1)NC2=CC=CC=C2C(O)=O,-4.8,0.0,1.0,G1,243.262,3.137,69.678,18.0,3.0,2.0,4.0,4.0,92.0,2.0,0.0,0.0,2.0,58.56,104.8375448,2.305563255,566.4704916
3411,A-5627,"1,4-bis[(2,4,6-trimethylphenyl)amino]-9,10-dihydroanthracene-9,10-dione","InChI=1S/C32H30N2O2/c1-17-13-19(3)29(20(4)14-17)33-25-11-12-26(34-30-21(5)15-18(2)16-22(30)6)28-27(25)31(35)23-9-7-8-10-24(23)32(28)36/h7-16,33-34H,1-6H3",DMDRBXCDTZRMHZ-UHFFFAOYSA-N,Cc1cc(C)c(Nc2ccc(Nc3c(C)cc(C)cc3C)c4C(=O)c5ccccc5C(=O)c24)c(C)c1,-7.825073045,0.0,1.0,G1,474.604,7.79972,147.6204,36.0,4.0,2.0,4.0,4.0,180.0,4.0,0.0,1.0,5.0,58.2,211.9391601,1.710808984,1416.07489
660,A-1149,2-methylquinolin-8-ol,"InChI=1S/C10H9NO/c1-7-5-6-8-3-2-4-9(12)10(8)11-7/h2-6,12H,1H3",NBYLBWHHTUWMER-UHFFFAOYSA-N,Cc1ccc2cccc(O)c2n1,-1.730618615,0.0,1.0,G1,159.188,2.24882,48.1448,12.0,2.0,1.0,2.0,0.0,60.0,2.0,0.0,0.0,2.0,33.12,70.4918915,2.877144558,423.1081353
6893,B-4188,fenuron,"InChI=1S/C9H12N2O/c1-11(2)9(12)10-8-6-4-3-5-7-8/h3-7H,1-2H3,(H,10,12)",XXOYNJXVWVNOOJ-UHFFFAOYSA-N,CN(C)C(=O)Nc1ccccc1,-1.6101,0.110833218,3.0,G5,164.208,1.7801,49.1477,12.0,1.0,1.0,3.0,1.0,64.0,1.0,0.0,0.0,1.0,32.34,71.99744742,2.58978298,256.4908623
1218,A-2100,1-methyl-4-(propan-2-yl)cyclohexane,"InChI=1S/C10H20/c1-8(2)10-6-4-9(3)5-7-10/h8-10H,4-7H2,1-3H3",CFJYNSNXFXLKNS-UHFFFAOYSA-N,CC1CCC(CC1)C(C)C,-5.354573108,0.172613446,2.0,G3,140.27,3.4687,45.96,10.0,0.0,0.0,0.0,1.0,60.0,0.0,1.0,1.0,1.0,0.0,65.0178989,2.259902596,86.21143267
8141,C-2087,thebainone,"InChI=1S/C18H21NO3/c1-19-8-7-18-10-12(20)4-5-13(18)14(19)9-11-3-6-15(22-2)17(21)16(11)18/h3-6,13-14,21H,7-10H2,1-2H3",SLJDAVMWFVYEFI-UHFFFAOYSA-N,COC1=C(O)C2=C(CC3C4C=CC(=O)CC24CCN3C)C=C1,-1.87,0.0,1.0,G1,299.37,2.044,83.3298,22.0,4.0,1.0,4.0,1.0,116.0,1.0,1.0,3.0,4.0,49.77,129.9327468,1.984032746,681.1549961
9102,F-316,5-aminoquinoline-6-sulfonic acid,"InChI=1S/C9H8N2O3S/c10-9-6-2-1-5-11-7(6)3-4-8(9)15(12,13)14/h1-5H,10H2,(H,12,13,14)",RSLYDUZZJLDOKH-UHFFFAOYSA-N,NC1=C(S(=O)(=O)O)C=CC2=C1C=CC=N2,-2.5,0.0,1.0,G1,224.241,1.0637,55.97,15.0,4.0,2.0,6.0,1.0,78.0,2.0,0.0,0.0,2.0,93.28,86.30124234,2.881809623,622.2901035
9354,F-692,4-[4-[(2-methylpropylamino)methyl]phenyl]sulfonylthiophene-2-sulfonamide,"InChI=1S/C15H20N2O4S3/c1-11(2)8-17-9-12-3-5-13(6-4-12)23(18,19)14-7-15(22-10-14)24(16,20)21/h3-7,10-11,17H,8-9H2,1-2H3,(H2,16,20,21)",VVKQXJMBVLKXJC-UHFFFAOYSA-N,CC(C)CNCC1=CC=C(S(=O)(=O)C2=CSC(S(N)(=O)=O)=C2)C=C1,-1.16,0.0,1.0,G1,388.536,1.9739,94.1307,24.0,6.0,2.0,9.0,7.0,132.0,2.0,0.0,0.0,2.0,106.33,146.2294983,2.191349999,898.4507393
5792,B-2703,chloromethiuron,"InChI=1S/C10H13ClN2S/c1-7-6-8(11)4-5-9(7)12-10(14)13(2)3/h4-6H,1-3H3,(H,12,14)",IBZZDPVVVSNQOY-UHFFFAOYSA-N,CN(C)C(=S)Nc1ccc(Cl)cc1C,-3.6604,0.0,1.0,G1,228.748,2.90682,66.0967,14.0,1.0,1.0,4.0,1.0,76.0,1.0,0.0,0.0,1.0,15.27,94.8629139,2.821792429,349.9752769
9871,G-1141,Vinclozolin,"InChI=1S/C12H9Cl2NO3/c1-3-12(2)10(16)15(11(17)18-12)9-5-7(13)4-8(14)6-9/h3-6H,1H2,2H3",FSCWZHGZWWDELK-UHFFFAOYSA-N,CC1(OC(=O)N(C1=O)c2cc(Cl)cc(Cl)c2)C=C,-4.925,0.0583,2.0,G3,286.114,3.4213,69.031,18.0,3.0,0.0,6.0,2.0,94.0,1.0,1.0,1.0,2.0,46.61,113.7285772,2.482347979,538.0035466
143,A-238,magnesium,InChI=1S/Mg/q+2,JLVVSXFLKOJNIY-UHFFFAOYSA-N,[Mg++],-2.402069338,0.552078934,3.0,G4,24.305,-0.3808,5.754,1.0,0.0,0.0,1.0,0.0,0.0,0.0,0.0,0.0,0.0,0.0,23.63837357,0.0,0.0
3988,B-536,"1,3-butanediol","InChI=1S/C4H10O2/c1-4(6)2-3-5/h4-6H,2-3H2,1H3",PUPZLCDOIYMWBV-UHFFFAOYSA-N,CC(O)CCO,1.0452,0.0,1.0,G1,90.122,-0.2504,23.3836,6.0,2.0,2.0,2.0,2.0,38.0,0.0,0.0,0.0,0.0,40.46,37.42254488,2.627214848,26.72905595