,ID,Name,InChI,InChIKey,SMILES,Solubility,SD,Ocurrences,Group,MolWt,MolLogP,MolMR,HeavyAtomCount,NumHAcceptors,NumHDonors,NumHeteroatoms,NumRotatableBonds,NumValenceElectrons,NumAromaticRings,NumSaturatedRings,NumAliphaticRings,RingCount,TPSA,LabuteASA,BalabanJ,BertzCT
4757,B-1536,"benzenemethanol, 4-bromo-","InChI=1S/C7H7BrO/c8-7-3-1-6(5-9)2-4-7/h1-4,9H,5H2",VEDDBHYQWFOITD-UHFFFAOYSA-N,OCc1ccc(Br)cc1,-1.9295,0.0,1.0,G1,187.036,1.9414,40.0648,9.0,1.0,1.0,2.0,1.0,48.0,1.0,0.0,0.0,1.0,20.23,62.45812659,2.881555878,180.6125685
4932,B-1740,o-nitrophenoxyacetic acid,"InChI=1S/C8H7NO5/c10-8(11)5-14-7-4-2-1-3-6(7)9(12)13/h1-4H,5H2,(H,10,11)",TYHHDWAHJRRYCU-UHFFFAOYSA-N,OC(=O)COc1ccccc1[N+]([O-])=O,-2.016,0.0,1.0,G1,197.146,1.0582,46.2272,14.0,4.0,1.0,6.0,4.0,74.0,1.0,0.0,0.0,1.0,89.67,78.88356415,2.844190584,362.5042009
6867,B-4144,2-chloroacetanilide,"InChI=1S/C8H8ClNO/c1-6(11)10-8-5-3-2-4-7(8)9/h2-5H,1H3,(H,10,11)",KNVQTRVKSOEHPU-UHFFFAOYSA-N,CC(=O)Nc1ccccc1Cl,-1.4001,0.0,1.0,G1,169.611,2.2984,45.7557,11.0,1.0,1.0,3.0,1.0,58.0,1.0,0.0,0.0,1.0,29.1,70.17593786,2.857454154,272.5494976
345,A-581,"1-(4-chlorophenoxy)-1-(1H-imidazol-1-yl)-3,3-dimethylbutan-2-one","InChI=1S/C15H17ClN2O2/c1-15(2,3)13(19)14(18-9-8-17-10-18)20-12-6-4-11(16)5-7-12/h4-10,14H,1-3H3",OWEGWHBOCFMBLP-UHFFFAOYSA-N,CC(C)(C)C(=O)C(Oc1ccc(Cl)cc1)n2ccnc2,-3.703092646,0.511453677,2.0,G2,292.766,3.7293,77.806,20.0,4.0,0.0,5.0,4.0,106.0,2.0,0.0,0.0,2.0,44.12,122.8952635,2.28122355,570.9210237
6020,B-2962,prosulfocarb,"InChI=1S/C14H21NOS/c1-3-10-15(11-4-2)14(16)17-12-13-8-6-5-7-9-13/h5-9H,3-4,10-12H2,1-2H3",NQLVQOSNDJXLKG-UHFFFAOYSA-N,CCCN(CCC)C(=O)SCc1ccccc1,-4.2798,0.0,1.0,G1,251.395,4.1618,75.288,17.0,2.0,0.0,3.0,6.0,94.0,1.0,0.0,0.0,1.0,20.31,108.3954058,2.412567788,320.2539115
7845,C-1626,5-methylcytosine,"InChI=1S/C5H7N3O/c1-3-2-7-5(9)8-4(3)6/h2H,1H3,(H3,6,7,8,9)",LRSASMSXMSNRBT-UHFFFAOYSA-N,CC1=CNC(=O)N=C1N,-1.44,0.419378707,3.0,G5,125.131,-0.33948,34.0071,9.0,3.0,2.0,4.0,0.0,48.0,1.0,0.0,0.0,1.0,71.77,51.73705399,3.336092887,265.1507718
8824,E-806,Cyclohexanol_Acetate,"InChI=1S/C8H14O2/c1-7(9)10-8-5-3-2-4-6-8/h8H,2-6H2,1H3",YYLLIJHXUHJATK-UHFFFAOYSA-N,C1CCCCC1OC(=O)C,-1.67,0.0,1.0,G1,142.198,1.8822,38.639,10.0,2.0,0.0,2.0,1.0,58.0,0.0,1.0,1.0,1.0,26.3,61.563082,2.191916391,114.4259988
6357,B-3335,"pyrimido[5,4-d]pyrimidine-2,4,8(3h)-trione, 1,7-","InChI=1S/C9H10N4O3/c1-11-4-10-5-6(8(11)15)12(2)9(16)13(3)7(5)14/h4H,1-3H3",SYYPSBXVMCETKL-UHFFFAOYSA-N,CN1C=NC2=C(N(C)C(=O)N(C)C2=O)C1=O,-1.985,0.0,1.0,G1,222.204,-1.6691,57.466,16.0,7.0,0.0,7.0,0.0,84.0,2.0,0.0,0.0,2.0,78.89,89.20096668,3.296071841,750.1539788
662,A-1153,"3-[2,2-dimethyl-3-(3-prop-2-enoyloxypropoxy)propoxy]propyl prop-2-enoate","InChI=1S/C17H28O6/c1-5-15(18)22-11-7-9-20-13-17(3,4)14-21-10-8-12-23-16(19)6-2/h5-6H,1-2,7-14H2,3-4H3",NQGDHQASSFDDLD-UHFFFAOYSA-N,CC(C)(COCCCOC(=O)C=C)COCCCOC(=O)C=C,-3.04954214,0.0,1.0,G1,328.405,2.2844,86.965,23.0,6.0,0.0,6.0,14.0,132.0,0.0,0.0,0.0,0.0,71.06,137.9763439,3.532312208,341.2798818
5663,B-2556,5-chlorovanillin,"InChI=1S/C8H7ClO3/c1-12-7-3-5(4-10)2-6(9)8(7)11/h2-4,11H,1H3",ONIVKFDMLVBDRK-UHFFFAOYSA-N,COc1cc(C=O)cc(Cl)c1O,-2.8747,0.0,1.0,G1,186.594,1.8667,45.0563,12.0,3.0,1.0,4.0,2.0,64.0,1.0,0.0,0.0,1.0,46.53,74.53385466,3.278676986,309.416437
9500,F-877,N-Hydroxy-n-(2-methylphenyl)-3-phenylpropanamide,"InChI=1S/C16H17NO2/c1-13-7-5-6-10-15(13)17(19)16(18)12-11-14-8-3-2-4-9-14/h2-10,19H,11-12H2,1H3",XXUCURAGFNEYDY-UHFFFAOYSA-N,CC1=C(N(O)C(=O)CCC2=CC=CC=C2)C=CC=C1,-2.79,0.0,1.0,G1,255.317,3.35002,75.2145,19.0,2.0,1.0,3.0,4.0,98.0,2.0,0.0,0.0,2.0,40.54,112.6178938,1.987121178,551.6852083
9381,F-724,"N,N'-bis(3,5,5-trimethylhexyl)ethane-1,2-diamine","InChI=1S/C20H44N2/c1-17(15-19(3,4)5)9-11-21-13-14-22-12-10-18(2)16-20(6,7)8/h17-18,21-22H,9-16H2,1-8H3",NGCCPWWOZGTTHT-UHFFFAOYSA-N,CC(CCNCCNCCC(C)CC(C)(C)C)CC(C)(C)C,-2.24,0.0,1.0,G1,312.586,5.0904,101.4454,22.0,2.0,2.0,2.0,11.0,134.0,0.0,0.0,0.0,0.0,24.06,140.7728756,3.406526215,231.8612593
1330,A-2307,"Bis(2-hydroxyethyl) 2-[(6-oxobenzo[c][2,1]benzoxaphosphinin-6-yl)methyl]butanedioate","InChI=1S/C21H23O8P/c22-9-11-27-20(24)13-15(21(25)28-12-10-23)14-30(26)19-8-4-2-6-17(19)16-5-1-3-7-18(16)29-30/h1-8,15,22-23H,9-14H2",MJOBQUIJUFKMPR-UHFFFAOYSA-N,OCCOC(=O)CC(C[P]1(=O)Oc2ccccc2c3ccccc13)C(=O)OCCO,-4.461779562,0.0,1.0,G1,434.381,1.7267,108.8101,30.0,8.0,2.0,9.0,9.0,160.0,2.0,0.0,1.0,3.0,119.36,173.3955628,1.91476044,957.5274785
6981,B-4312,disulfoton sulfoxide,"InChI=1S/C8H19O3PS3/c1-4-10-12(13,11-5-2)14-7-8-15(9)6-3/h4-8H2,1-3H3",UPUGLJYNCXXUQV-UHFFFAOYSA-N,CCO[P](=S)(OCC)SCC[S](=O)CC,-1.8609,0.0,1.0,G1,290.412,2.7857,73.5454,15.0,5.0,0.0,7.0,9.0,92.0,0.0,0.0,0.0,0.0,35.53,104.060143,3.956058732,225.171784
832,A-1447,"2,5-bis(tert-butylperoxy)-2,5-dimethylhex-3-yne","InChI=1S/C16H30O4/c1-13(2,3)17-19-15(7,8)11-12-16(9,10)20-18-14(4,5)6/h1-10H3",ODBCKCWTWALFKM-UHFFFAOYSA-N,CC(C)(C)OOC(C)(C)C#CC(C)(C)OOC(C)(C)C,-5.114568529,0.0,1.0,G1,286.412,4.0404,79.78,20.0,4.0,0.0,4.0,4.0,118.0,0.0,0.0,0.0,0.0,36.92,123.5253797,4.597134617,324.6538984
5552,B-2432,"1,3-benzenedicarboxamide, n,n,n',n'-tetramethyl-","InChI=1S/C12H16N2O2/c1-13(2)11(15)9-6-5-7-10(8-9)12(16)14(3)4/h5-8H,1-4H3",SVWDHNLFFDIWHM-UHFFFAOYSA-N,CN(C)C(=O)c1cccc(c1)C(=O)N(C)C,0.487,0.0,1.0,G1,220.272,1.0902,62.477,16.0,2.0,0.0,4.0,2.0,86.0,1.0,0.0,0.0,1.0,40.62,95.46376735,3.045391096,375.9847168
2790,A-4663,5-chloro-2-methylaniline,"InChI=1S/C7H8ClN/c1-5-2-3-6(8)4-7(5)9/h2-4H,9H2,1H3",WRZOMWDJOLIVQP-UHFFFAOYSA-N,Cc1ccc(Cl)cc1N,-2.071885074,0.0,1.0,G1,141.601,2.23062,40.6014,9.0,1.0,1.0,2.0,0.0,48.0,1.0,0.0,0.0,1.0,26.02,59.43950216,3.17167803,220.1561776
2627,A-4416,2-[(prop-2-en-1-yloxy)methyl]oxirane,"InChI=1S/C6H10O2/c1-2-3-7-4-6-5-8-6/h2,6H,1,3-5H2",LSWYGACWGAICNM-UHFFFAOYSA-N,C=CCOCC1CO1,0.049756882,0.019459033,2.0,G3,114.144,0.5878,30.756,8.0,2.0,0.0,2.0,4.0,46.0,0.0,1.0,1.0,1.0,21.76,49.09561787,1.803593801,76.59772061
4057,B-663,2-amino-2-methylpropanediol,"InChI=1S/C4H11NO2/c1-4(5,2-6)3-7/h6-7H,2-3,5H2,1H3",UXFQFBNBSPQBJW-UHFFFAOYSA-N,CC(N)(CO)CO,0.9782,0.0,1.0,G1,105.137,-1.3116,26.764,7.0,3.0,3.0,3.0,2.0,44.0,0.0,0.0,0.0,0.0,66.48,42.76243557,3.360435143,47.65148445
4079,B-692,"p-(2,4-dinitroaniline)phenol","InChI=1S/C12H9N3O5/c16-10-4-1-8(2-5-10)13-11-6-3-9(14(17)18)7-12(11)15(19)20/h1-7,13,16H",BCPQALWAROJVLE-UHFFFAOYSA-N,Oc1ccc(Nc2ccc(cc2[N+]([O-])=O)[N+]([O-])=O)cc1,-5.444,0.0,1.0,G1,275.22,2.9522,71.1403,20.0,6.0,2.0,8.0,4.0,102.0,2.0,0.0,0.0,2.0,118.54,112.1385447,2.378017975,669.2930539
5242,B-2080,"1,1,3-trimethylcyclopentane","InChI=1S/C8H16/c1-7-4-5-8(2,3)6-7/h7H,4-6H2,1-3H3",OBKHYUIZSOIEPG-UHFFFAOYSA-N,CC1CCC(C)(C)C1,-4.4784,0.0,1.0,G1,112.216,2.8326,36.796,8.0,0.0,0.0,0.0,0.0,48.0,0.0,1.0,1.0,1.0,0.0,52.28801468,2.435439721,82.03910002
7661,C-1254,levorphanol,"InChI=1S/C17H23NO/c1-18-9-8-17-7-3-2-4-14(17)16(18)10-12-5-6-13(19)11-15(12)17/h5-6,11,14,16,19H,2-4,7-10H2,1H3",JAQUASYNZVUNQP-UHFFFAOYSA-N,CN1CCC23CCCCC2C1CC4=C3C=C(O)C=C4,-2.72,0.0,1.0,G1,257.377,3.0804,76.4818,19.0,2.0,1.0,2.0,0.0,102.0,1.0,2.0,3.0,4.0,23.47,114.9823403,1.904867133,511.9835708
9882,H-219,"2,2',3,3',4,4',5-Heptachlorodiphenyl ether  ",InChI=1S/C12H3Cl7O/c13-4-1-2-6(10(17)8(4)15)20-7-3-5(14)9(16)12(19)11(7)18/h1-3H,BLBURLWSCHSPIS-UHFFFAOYSA-N,ClC1=CC=C(OC2=CC(Cl)=C(Cl)C(Cl)=C2Cl)C(Cl)=C1Cl,-9.12,0.0,1.0,G1,411.326,8.0527,88.028,20.0,1.0,0.0,8.0,2.0,106.0,2.0,0.0,0.0,2.0,9.23,149.7249061,2.484946248,684.2365475
2897,A-4851,"disodium 4,5-dichloro-2-[(E)-2-[3-methyl-5-oxo-1-(3-sulfonatophenyl)-4,5-dihydro-1H-pyrazol-4-yl]diazen-1-yl]benzene-1-sulfonate","InChI=1S/C16H12Cl2N4O7S2.2Na/c1-8-15(20-19-13-6-11(17)12(18)7-14(13)31(27,28)29)16(23)22(21-8)9-3-2-4-10(5-9)30(24,25)26;;/h2-7,15H,1H3,(H,24,25,26)(H,27,28,29);;/q;2*+1/p-2",NPHMJNPFGARTFL-UHFFFAOYSA-L,[Na+].[Na+].CC1=NN(c2cccc(c2)[S]([O-])(=O)=O)C(=O)C1N=Nc3cc(Cl)c(Cl)cc3[S]([O-])(=O)=O,-3.264264374,0.0,1.0,G1,551.297,-3.3154,107.7294,33.0,10.0,0.0,17.0,5.0,164.0,2.0,0.0,1.0,3.0,171.79,242.8666305,2.72e-06,1368.901949
3859,B-325,2-acetylthiophene,"InChI=1S/C6H6OS/c1-5(7)6-3-2-4-8-6/h2-4H,1H3",WYJOVVXUZNRJQY-UHFFFAOYSA-N,CC(=O)c1sccc1,-0.9549,0.0,1.0,G1,126.18,1.9507,34.3235,8.0,2.0,0.0,2.0,1.0,42.0,1.0,0.0,0.0,1.0,17.07,51.96317272,2.928375237,176.4184221
8014,C-1890,"wl 9385;  6-azido-n-butyl-n-ethyl-[1,3,5]triazine-2,4-diamine","InChI=1S/C9H16N8/c1-3-5-6-17(4-2)9-13-7(10)12-8(14-9)15-16-11/h3-6H2,1-2H3,(H2,10,12,13,14)",OGYRXMQCIDHOMI-UHFFFAOYSA-N,CCCCN(CC)C1=NC(=NC(=N1)N=[N+]=[N-])N,-3.52,0.0,1.0,G1,236.283,2.022,65.8404,17.0,6.0,1.0,8.0,6.0,92.0,1.0,0.0,0.0,1.0,116.69,99.51344613,2.970017789,411.4569226
5495,B-2366,nitrothal-isopropyl,"InChI=1S/C14H17NO6/c1-8(2)20-13(16)10-5-11(14(17)21-9(3)4)7-12(6-10)15(18)19/h5-9H,1-4H3",VJAWBEFMCIINFU-UHFFFAOYSA-N,CC(C)OC(=O)c1cc(cc(c1)[N+]([O-])=O)C(=O)OC(C)C,-5.0389,0.42055,2.0,G3,295.291,2.7252,74.1994,21.0,6.0,0.0,7.0,5.0,114.0,1.0,0.0,0.0,1.0,95.74,121.5540504,3.202220827,524.3327019
1142,A-1963,dilanthanum(3+) ion tricarbonate,"InChI=1S/3CH2O3.2La/c3*2-1(3)4;;/h3*(H2,2,3,4);;/q;;;2*+3/p-6",NZPIUJUFIFZSPW-UHFFFAOYSA-H,[La+3].[La+3].[O-]C([O-])=O.[O-]C([O-])=O.[O-]C([O-])=O,-5.395892116,0.082223639,2.0,G3,457.836,-7.341,16.188,14.0,9.0,0.0,11.0,0.0,72.0,0.0,0.0,0.0,0.0,189.57,132.9381735,-2.7e-08,115.6067314
8862,E-955,Santonin,"InChI=1S/C15H18O3/c1-8-10-4-6-15(3)7-5-11(16)9(2)12(15)13(10)18-14(8)17/h5,7-8,10,13H,4,6H2,1-3H3",XJHDMGJURBVLLE-UHFFFAOYSA-N,O=C(OC(C(C(C=CC1=O)(CC2)C)=C1C)C23)C3C,-3.09,0.0,1.0,G1,246.306,2.4196,66.722,18.0,3.0,0.0,3.0,0.0,96.0,0.0,2.0,3.0,3.0,43.37,106.8883305,2.098956532,499.8681035
3276,A-5388,3-[(2-hydroxyethyl)amino]propanamide,"InChI=1S/C5H12N2O2/c6-5(9)1-2-7-3-4-8/h7-8H,1-4H2,(H2,6,9)",WRLAXUYIDLSRHV-UHFFFAOYSA-N,NC(=O)CCNCCO,-0.121109888,0.0,1.0,G1,132.163,-1.5563,33.7669,9.0,3.0,3.0,4.0,5.0,54.0,0.0,0.0,0.0,0.0,75.35,54.04452822,2.828868135,85.02718015
5258,B-2098,3-chloro-2-nitrobenzoic acid,"InChI=1S/C7H4ClNO4/c8-5-3-1-2-4(7(10)11)6(5)9(12)13/h1-3H,(H,10,11)/p-1",VCHSXYHBMFKRBK-UHFFFAOYSA-M,[O-]C(=O)c1cccc(Cl)c1[N+]([O-])=O,-2.6323,0.0,1.0,G1,200.557,0.6117,42.4369,13.0,4.0,0.0,6.0,2.0,68.0,1.0,0.0,0.0,1.0,83.27,77.70834304,3.427344205,376.7553336
8045,C-1939,"2-oxo-5-indolinyl acetate;  acetic acid 2-oxo-2,3-dihydro-1h-indol-5-yl ester;  5-acetoxy-2-oxo-2,3-dihydroindole","InChI=1S/C10H9NO3/c1-6(12)14-8-2-3-9-7(4-8)5-10(13)11-9/h2-4H,5H2,1H3,(H,11,13)",HFLJOXHDBCRLQR-UHFFFAOYSA-N,CC(=O)OC1=CC2=C(NC(=O)C2)C=C1,-1.54,0.0,1.0,G1,191.186,1.1065,50.0847,14.0,3.0,1.0,4.0,1.0,72.0,1.0,0.0,1.0,2.0,55.4,80.87179204,2.279974977,411.8281798
5684,B-2581,"phosphorodithioic acid, s-[2-(ethylsulfonyl)ethy","InChI=1S/C6H15O4PS3/c1-4-14(7,8)6-5-13-11(12,9-2)10-3/h4-6H2,1-3H3",GAXMYYJSILFZLT-UHFFFAOYSA-N,CC[S](=O)(=O)CCS[P](=S)(OC)OC,-2.5415,0.0,1.0,G1,278.357,1.6716,65.0888,14.0,6.0,0.0,8.0,7.0,86.0,0.0,0.0,0.0,0.0,52.6,94.58140293,4.025270258,292.1984776
8535,D-316,metsulfuron-methyl,"InChI=1S/C14H15N5O6S/c1-8-15-12(18-14(16-8)25-3)17-13(21)19-26(22,23)10-7-5-4-6-9(10)11(20)24-2/h4-7H,1-3H3,(H2,15,16,17,18,19,21)",RSMUVYRMZCOLBH-UHFFFAOYSA-N,COC(=O)c1ccccc1[S](=O)(=O)NC(=O)Nc2nc(C)nc(OC)n2,-1.604,0.0,1.0,G1,381.37,0.48562,88.2377,26.0,9.0,2.0,12.0,5.0,138.0,2.0,0.0,0.0,2.0,149.47,148.3827868,2.23596491,946.5935873
8690,E-17,trans-2-heptene,"InChI=1S/C7H14/c1-3-5-7-6-4-2/h3,5H,4,6-7H2,1-2H3",OTTZHAVKAVGASB-UHFFFAOYSA-N,CCCCC=CC,-3.82,0.0,1.0,G1,98.189,2.7527,34.339,7.0,0.0,0.0,0.0,3.0,42.0,0.0,0.0,0.0,0.0,0.0,46.23930068,2.689157412,44.0
284,A-477,D-erythro-pentitol,"InChI=1S/C5H12O5/c6-1-3(8)5(10)4(9)2-7/h3-10H,1-2H2",HEBKCHPVOIAQTA-UHFFFAOYSA-N,OCC(O)C(O)C(O)CO,0.625274489,0.0,1.0,G1,152.146,-2.9463,32.192,10.0,5.0,5.0,5.0,4.0,62.0,0.0,0.0,0.0,0.0,101.15,58.17018825,3.685406534,76.10749561
7476,C-846,propoxyphene,"InChI=1S/C22H29NO2/c1-5-21(24)25-22(18(2)17-23(3)4,20-14-10-7-11-15-20)16-19-12-8-6-9-13-19/h6-15,18H,5,16-17H2,1-4H3",XLMALTXPSGQGBX-UHFFFAOYSA-N,CCC(=O)OC(CC1=CC=CC=C1)(C(C)CN(C)C)C2=CC=CC=C2,-2.61,0.0,1.0,G1,339.479,4.2755,102.367,25.0,3.0,0.0,3.0,8.0,134.0,2.0,0.0,0.0,2.0,29.54,151.1728195,2.526296518,654.2421417
3052,A-5101,dimethyl[3-(octadecyloxy)propyl]amine,"InChI=1S/C23H49NO/c1-4-5-6-7-8-9-10-11-12-13-14-15-16-17-18-19-22-25-23-20-21-24(2)3/h4-23H2,1-3H3",BHQZSXXOSYWJSZ-UHFFFAOYSA-N,CCCCCCCCCCCCCCCCCCOCCCN(C)C,-6.85205403,0.0,1.0,G1,355.651,7.2162,113.536,25.0,2.0,0.0,2.0,21.0,152.0,0.0,0.0,0.0,0.0,12.47,159.6413564,2.961163225,230.1326798
7193,B-4643,"butanamide, 2-chloro-2-ethyl-","InChI=1S/C6H12ClNO/c1-3-6(7,4-2)5(8)9/h3-4H2,1-2H3,(H2,8,9)",AFVUGDZUMJEIHX-UHFFFAOYSA-N,CCC(Cl)(CC)C(N)=O,-1.0289,0.0,1.0,G1,149.621,1.2693,38.3604,9.0,1.0,1.0,3.0,3.0,54.0,0.0,0.0,0.0,0.0,43.09,60.36864062,4.090340516,109.6254878
4876,B-1679,"benzamide, 3-(aminosulfonyl)-","InChI=1S/C7H8N2O3S/c8-7(10)5-2-1-3-6(4-5)13(9,11)12/h1-4H,(H2,8,10)(H2,9,11,12)",AJVBPNRMKNARPG-UHFFFAOYSA-N,NC(=O)c1cccc(c1)[S](N)(=O)=O,-2.1554,0.0,1.0,G1,200.219,-0.5671,46.3331,13.0,3.0,2.0,6.0,2.0,70.0,1.0,0.0,0.0,1.0,103.25,75.39842462,3.291324672,438.8058063
7055,B-4420,1-napthylthiourea,"InChI=1S/C11H10N2S/c12-11(14)13-10-7-3-5-8-4-1-2-6-9(8)10/h1-7H,(H3,12,13,14)",PIVQQUNOTICCSA-UHFFFAOYSA-N,NC(=S)Nc1cccc2ccccc12,-2.5278,0.0,1.0,G1,202.282,2.4953,64.3561,14.0,1.0,2.0,3.0,1.0,70.0,2.0,0.0,0.0,2.0,38.05,87.72654289,2.587530917,474.1761554
6435,B-3419,"benzenesulfonamide, 4-[(2-hydroxyethyl)thio]-","InChI=1S/C8H11NO3S2/c9-14(11,12)8-3-1-7(2-4-8)13-6-5-10/h1-4,10H,5-6H2,(H2,9,11,12)",LTXDVFFEVZJDGT-UHFFFAOYSA-N,N[S](=O)(=O)c1ccc(SCCO)cc1,-1.8239,0.0,1.0,G1,233.314,0.4184,55.625,14.0,4.0,2.0,6.0,4.0,78.0,1.0,0.0,0.0,1.0,80.39,87.17929772,2.791184181,385.5523482
3598,A-6026,2-methylpropyl dodecanoate,"InChI=1S/C16H32O2/c1-4-5-6-7-8-9-10-11-12-13-16(17)18-14-15(2)3/h15H,4-14H2,1-3H3",SZFOMJOELAAHAF-UHFFFAOYSA-N,CCCCCCCCCCCC(=O)OCC(C)C,-7.931847578,0.0,1.0,G1,256.43,5.1065,77.641,18.0,2.0,0.0,2.0,12.0,108.0,0.0,0.0,0.0,0.0,26.3,113.4884501,3.124961195,187.5359818
2847,A-4762,"2,3,4-trichlorobut-1-ene","InChI=1S/C4H5Cl3/c1-3(6)4(7)2-5/h4H,1-2H2",WZUZDBPJFHQVJC-UHFFFAOYSA-N,ClCC(Cl)C(Cl)=C,-2.424454207,0.0,1.0,G1,159.443,2.5851,35.354,7.0,0.0,0.0,3.0,2.0,42.0,0.0,0.0,0.0,0.0,0.0,58.05427302,3.343417059,69.33515885
7882,C-1685,vamidothion,"InChI=1S/C8H18NO4PS2/c1-7(8(10)9-2)15-5-6-16-14(11,12-3)13-4/h7H,5-6H2,1-4H3,(H,9,10)",LESVOLZBIFDZGS-UHFFFAOYSA-N,CNC(=O)C(C)SCCS[P](=O)(OC)OC,0.54,0.302,2.0,G3,287.343,1.9882,70.0692,16.0,6.0,1.0,8.0,8.0,96.0,0.0,0.0,0.0,0.0,64.63,104.6900657,3.756993147,256.4228653
5431,B-2295,5-quinolinecarboxylic acid,"InChI=1S/C10H7NO2/c12-10(13)8-3-1-5-9-7(8)4-2-6-11-9/h1-6H,(H,12,13)",RAYMXZBXQCGRGX-UHFFFAOYSA-N,OC(=O)c1cccc2ncccc12,-2.6774,0.0,1.0,G1,173.171,1.933,48.7023,13.0,2.0,1.0,3.0,1.0,64.0,2.0,0.0,0.0,2.0,50.19,74.6534136,2.830975658,459.9363286
7440,C-762,1-(4-chlorophenylsulfonyl)cycloheptanecarboxylic acid isopropyl ester,"InChI=1S/C17H23ClO4S/c1-13(2)22-16(19)17(11-5-3-4-6-12-17)23(20,21)15-9-7-14(18)8-10-15/h7-10,13H,3-6,11-12H2,1-2H3",CNCBPCXAUZPIGA-UHFFFAOYSA-N,CC(C)OC(=O)C1(CCCCCC1)[S](=O)(=O)C2=CC=C(Cl)C=C2,-5.52,0.0,1.0,G1,358.887,4.1583,90.2988,23.0,4.0,0.0,6.0,4.0,128.0,1.0,1.0,1.0,2.0,60.44,142.6436672,2.507020287,641.6758698
8218,C-2194,"2,2',3,4-tetrachlorodiphenyl  ether",InChI=1S/C12H6Cl4O/c13-7-3-1-2-4-9(7)17-10-6-5-8(14)11(15)12(10)16/h1-6H,VTTDWGUAWMLHPR-UHFFFAOYSA-N,ClC1=CC=C(OC2=C(Cl)C=CC=C2)C(=C1Cl)Cl,-6.74,0.0,1.0,G1,307.991,6.0925,72.998,17.0,1.0,0.0,5.0,2.0,88.0,2.0,0.0,0.0,2.0,9.23,118.8151075,2.376296612,554.1970467
5837,B-2756,"2-furancarboxylic acid, 3,4-dibromo-","InChI=1S/C5H2Br2O3/c6-2-1-10-4(3(2)7)5(8)9/h1H,(H,8,9)",ISBXWVSYAWHMSU-UHFFFAOYSA-N,OC(=O)c1occ(Br)c1Br,-2.0887,0.0,1.0,G1,269.876,2.5028,41.0673,10.0,2.0,1.0,5.0,1.0,54.0,1.0,0.0,0.0,1.0,50.44,73.28152556,3.17379232,265.8568215
4768,B-1549,butyl nitrate,"InChI=1S/C4H9NO3/c1-2-3-4-8-5(6)7/h2-4H2,1H3",QQHZPQUHCAKSOL-UHFFFAOYSA-N,CCCCO[N+]([O-])=O,-2.0268,0.0,1.0,G1,119.12,0.9948,27.8544,8.0,3.0,0.0,4.0,4.0,48.0,0.0,0.0,0.0,0.0,52.37,47.55463682,2.822354554,73.6836744
9634,F-1091,"2-[2-(furan-2-yl)benzimidazol-1-yl]-5-(hydroxymethyl)oxolane-3,4-diol","InChI=1S/C16H16N2O5/c19-8-12-13(20)14(21)16(23-12)18-10-5-2-1-4-9(10)17-15(18)11-6-3-7-22-11/h1-7,12-14,16,19-21H,8H2",TWMNUUAIOLTJCK-UHFFFAOYSA-N,OCC1OC(N2C(C3=CC=CO3)=NC3=C2C=CC=C3)C(O)C1O,-2.92,0.0,1.0,G1,316.313,0.9078,80.4444,23.0,7.0,3.0,7.0,3.0,120.0,3.0,1.0,1.0,4.0,100.88,130.9183969,1.900978369,813.1097518
4568,B-1304,"ethane, 1,1,1-trichloro-2,2-diethoxy-","InChI=1S/C6H11Cl3O2/c1-3-10-5(11-4-2)6(7,8)9/h5H,3-4H2,1-2H3",CGCJBAIEQANINV-UHFFFAOYSA-N,CCOC(OCC)C(Cl)(Cl)Cl,-1.6464,0.0,1.0,G1,221.511,2.7557,47.33,11.0,2.0,0.0,5.0,4.0,68.0,0.0,0.0,0.0,0.0,18.46,81.70085074,3.875658581,96.49074297
2258,A-3751,"(1-methyl-1,2-ethanediyl)bis[oxy(methyl-2,1-ethanediyl)] diacrylate","InChI=1S/C15H24O6/c1-6-14(16)20-12(4)9-18-8-11(3)19-10-13(5)21-15(17)7-2/h6-7,11-13H,1-2,8-10H2,3-5H3",ZDQNWDNMNKSMHI-UHFFFAOYSA-N,CC(COCC(C)OC(=O)C=C)OCC(C)OC(=O)C=C,-1.875569091,0.0,1.0,G1,300.351,1.6435,77.735,21.0,6.0,0.0,6.0,11.0,120.0,0.0,0.0,0.0,0.0,71.06,125.2464597,3.72598831,352.0730051
9969,I-72,procaine,"InChI=1S/C13H20N2O2/c1-3-15(4-2)9-10-17-13(16)11-5-7-12(14)8-6-11/h5-8H,3-4,9-10,14H2,1-2H3",MFDFERRIHVXMIY-UHFFFAOYSA-N,Nc1ccc(C(OCCN(CC)CC)=O)cc1,-1.72,0.316388332,4.0,G5,236.315,1.7674,68.9249,17.0,4.0,1.0,4.0,6.0,94.0,1.0,0.0,0.0,1.0,55.56,102.3607896,2.369457579,344.9420244
3297,A-5423,"Heptanoic acid, ester with 2-ethyl-2-(hydroxymethyl)-1,3-propanediol pentanoate","InChI=1S/C18H34O5/c1-4-7-9-10-12-17(21)23-15-18(6-3,13-19)14-22-16(20)11-8-5-2/h19H,4-15H2,1-3H3",CIPBJDPIFXKOLJ-UHFFFAOYSA-N,CCCCCCC(=O)OCC(CC)(CO)COC(=O)CCCC,-5.982567027,0.0,1.0,G1,330.465,3.6221,90.0118,23.0,5.0,1.0,5.0,14.0,136.0,0.0,0.0,0.0,0.0,72.83,140.2876354,4.205043878,323.3736345
67,A-111,5-Ethyl-2-methylpyridine,"InChI=1S/C8H11N/c1-3-8-5-4-7(2)9-6-8/h4-6H,3H2,1-2H3",NTSLROIKFLNUIJ-UHFFFAOYSA-N,CCc1ccc(C)nc1,-1.004260454,0.0,1.0,G1,121.183,1.95242,38.352,9.0,1.0,0.0,1.0,1.0,48.0,1.0,0.0,0.0,1.0,12.89,55.74587744,2.881555878,176.264053
2143,A-3533,3-amino-2-chloro-6-methylphenol,"InChI=1S/C7H8ClNO/c1-4-2-3-5(9)6(8)7(4)10/h2-3,10H,9H2,1H3",XYRDGCCCBJITBH-UHFFFAOYSA-N,Cc1ccc(N)c(Cl)c1O,-1.48155287,0.0,1.0,G1,157.6,1.93622,42.2662,10.0,2.0,2.0,3.0,0.0,54.0,1.0,0.0,0.0,1.0,46.25,64.23373591,3.342153808,233.0281739
5298,B-2147,"acetic acid, (3,5-dimethylphenoxy)-","InChI=1S/C10H12O3/c1-7-3-8(2)5-9(4-7)13-6-10(11)12/h3-5H,6H2,1-2H3,(H,11,12)",NIPZZANLNKBKIS-UHFFFAOYSA-N,Cc1cc(C)cc(OCC(O)=O)c1,-2.3527,0.0,1.0,G1,180.203,1.76684,49.0468,13.0,2.0,1.0,3.0,3.0,70.0,1.0,0.0,0.0,1.0,46.53,76.96047266,2.713242193,297.6959388
5466,B-2332,copper sulfate pentahydrate,"InChI=1S/Cu.H2O4S.5H2O/c;1-5(2,3)4;;;;;/h;(H2,1,2,3,4);5*1H2/q+2;;;;;;/p-2",JZCCFEFSEZPSOG-UHFFFAOYSA-L,O.O.O.O.O.[Cu++].[O-][S]([O-])(=O)=O,-0.8922,0.0,1.0,G1,249.684,-5.464,28.5436,11.0,4.0,0.0,11.0,0.0,81.0,0.0,0.0,0.0,0.0,237.76,73.00556997,-5.33e-09,92.73114066
6305,B-3281,"2-propenoic acid, 3-bromo-2,3-diiodo-","InChI=1S/C3HBrI2O2/c4-2(6)1(5)3(7)8/h(H,7,8)",BWTBNELHFHOXGK-UHFFFAOYSA-N,OC(=O)C(I)=C(Br)I,-1.2891,0.0,1.0,G1,402.751,2.505,51.6288,8.0,1.0,1.0,5.0,1.0,46.0,0.0,0.0,0.0,0.0,37.3,82.12651192,4.226619287,138.2188491
2447,A-4097,(4-methyl-1H-imidazol-5-yl)methanol,"InChI=1S/C5H8N2O/c1-4-5(2-8)7-3-6-4/h3,8H,2H2,1H3,(H,6,7)",AXJZCJSXNZZMDU-UHFFFAOYSA-N,Cc1[nH]cnc1CO,0.268333767,0.0,1.0,G1,112.132,0.21042,29.2475,8.0,2.0,2.0,3.0,1.0,44.0,1.0,0.0,0.0,1.0,48.91,47.3843295,2.922518308,170.6915279
4047,B-643,"1,2-bis(2-chloroethoxy)ethane",InChI=1S/C6H12Cl2O2/c7-1-3-9-5-6-10-4-2-8/h1-6H2,AGYUOJIYYGGHKV-UHFFFAOYSA-N,ClCCOCCOCCCl,-0.9955,0.0,1.0,G1,187.066,1.4972,43.078,10.0,2.0,0.0,4.0,7.0,62.0,0.0,0.0,0.0,0.0,18.46,71.39758451,2.647604849,53.70950594
6273,B-3244,oxadixyl,"InChI=1S/C14H18N2O4/c1-10-5-4-6-11(2)13(10)16(12(17)9-19-3)15-7-8-20-14(15)18/h4-6H,7-9H2,1-3H3",UWVQIROCRJWDKL-UHFFFAOYSA-N,COCC(=O)N(N1CCOC1=O)c2c(C)cccc2C,-1.913,0.0,1.0,G1,278.308,1.65004,73.332,20.0,4.0,0.0,6.0,4.0,108.0,1.0,1.0,1.0,2.0,59.08,117.3850469,2.45504079,509.6552304