,ID,Name,InChI,InChIKey,SMILES,Solubility,SD,Ocurrences,Group,MolWt,MolLogP,MolMR,HeavyAtomCount,NumHAcceptors,NumHDonors,NumHeteroatoms,NumRotatableBonds,NumValenceElectrons,NumAromaticRings,NumSaturatedRings,NumAliphaticRings,RingCount,TPSA,LabuteASA,BalabanJ,BertzCT
766,A-1336,prop-2-en-1-yl 2-methylprop-2-enoate,"InChI=1S/C7H10O2/c1-4-5-9-7(8)6(2)3/h4H,1-2,5H2,3H3",FBCQUCJYYPMKRO-UHFFFAOYSA-N,CC(=C)C(=O)OCC=C,-1.758481787,0.00804341,2.0,G3,126.155,1.2917,35.97,9.0,2.0,0.0,2.0,3.0,50.0,0.0,0.0,0.0,0.0,26.3,54.82476498,3.508405122,135.8515772
6097,B-3049,"propane, 2,2-bis(methylsulfonyl)-","InChI=1S/C5H12O4S2/c1-5(2,10(3,6)7)11(4,8)9/h1-4H3",YBSYYLRYPMFRNL-UHFFFAOYSA-N,CC(C)([S](C)(=O)=O)[S](C)(=O)=O,-1.4504,0.0,1.0,G1,200.281,-0.1883,43.7666,11.0,4.0,0.0,6.0,2.0,68.0,0.0,0.0,0.0,0.0,68.28,67.44981625,5.454529984,298.6787074
775,A-1349,3-pentyloxan-4-yl acetate,"InChI=1S/C12H22O3/c1-3-4-5-6-11-9-14-8-7-12(11)15-10(2)13/h11-12H,3-9H2,1-2H3",VSRVCSJJKWDZSH-UHFFFAOYSA-N,CCCCCC1COCCC1OC(C)=O,-2.998795888,0.0,1.0,G1,214.305,2.5349,58.622,15.0,3.0,0.0,3.0,5.0,88.0,0.0,1.0,1.0,1.0,35.53,92.13639569,2.318184986,191.3062532
9669,F-1134,"5-(hydroxymethyl)-2-(trichloromethyl)-3~{a},5,6,6~{a}-tetrahydrofuro[2,3-d][1,3]dioxol-6-ol","InChI=1S/C7H9Cl3O5/c8-7(9,10)6-14-4-3(12)2(1-11)13-5(4)15-6/h2-6,11-12H,1H2",MWVWYISMEDQTPL-UHFFFAOYSA-N,OCC1OC2OC(C(Cl)(Cl)Cl)OC2C1O,-2.12,0.0,1.0,G1,279.503,0.1762,51.7896,15.0,5.0,2.0,8.0,1.0,88.0,0.0,2.0,2.0,2.0,68.15,100.7561433,2.018943404,245.270381
2321,A-3872,"4-methyl-3a,4,7,7a-tetrahydro-2-benzofuran-1,3-dione","InChI=1S/C9H10O3/c1-5-3-2-4-6-7(5)9(11)12-8(6)10/h2-3,5-7H,4H2,1H3",XPEKVUUBSDFMDR-UHFFFAOYSA-N,CC1C=CCC2C1C(=O)OC2=O,-0.736268462,0.0,1.0,G1,166.176,0.8982,41.0,12.0,3.0,0.0,3.0,0.0,64.0,0.0,1.0,2.0,2.0,43.37,70.39411203,2.323734962,266.9472131
6953,B-4271,"2,3-dimethylpyridine","InChI=1S/C7H9N/c1-6-4-3-5-8-7(6)2/h3-5H,1-2H3",HPYNZHMRTTWQTB-UHFFFAOYSA-N,Cc1cccnc1C,0.0938,0.1456,2.0,G3,107.156,1.69844,33.711,8.0,1.0,0.0,1.0,0.0,42.0,1.0,0.0,0.0,1.0,12.89,49.38093533,3.134861511,160.4966295
5185,B-2017,"undecanoic acid, 11-hydroxy-","InChI=1S/C11H22O3/c12-10-8-6-4-2-1-3-5-7-9-11(13)14/h12H,1-10H2,(H,13,14)/p-1",KNRCBASNXNXUQQ-UHFFFAOYSA-M,OCCCCCCCCCCC([O-])=O,-2.7039,0.0,1.0,G1,201.286,1.2395,53.6458,14.0,3.0,1.0,3.0,10.0,84.0,0.0,0.0,0.0,0.0,60.36,86.13866178,2.884064615,134.4943336
9689,F-1156,Naproxen morpholinobutyl ester,"InChI=1S/C22H29NO4/c1-17(18-5-6-20-16-21(25-2)8-7-19(20)15-18)22(24)27-12-4-3-9-23-10-13-26-14-11-23/h5-8,15-17H,3-4,9-14H2,1-2H3",FOJQWBARRQHNJT-UHFFFAOYSA-N,COC1=CC2=CC=C(C(C)C(=O)OCCCCN3CCOCC3)C=C2C=C1,-3.7,0.0,1.0,G1,371.477,3.6075,106.367,27.0,5.0,0.0,5.0,8.0,146.0,2.0,1.0,1.0,3.0,48.0,160.7485333,1.454939353,755.0612299
928,A-1608,ethyl 2-methyl-4-oxo-6-pentylcyclohex-2-ene-1-carboxylate,"InChI=1S/C15H24O3/c1-4-6-7-8-12-10-13(16)9-11(3)14(12)15(17)18-5-2/h9,12,14H,4-8,10H2,1-3H3",ZJLHQWGPVWXKME-UHFFFAOYSA-N,CCCCCC1CC(=O)C=C(C)C1C(=O)OCC,-3.187166345,0.0,1.0,G1,252.354,3.2813,71.136,18.0,3.0,0.0,3.0,6.0,102.0,0.0,0.0,1.0,1.0,43.37,109.5895959,2.735592005,330.6304155
3985,B-532,trichlorourethan,"InChI=1S/C3H4Cl3NO2/c4-3(5,6)1-9-2(7)8/h1H2,(H2,7,8)",QPLJYAKLSCXZSF-UHFFFAOYSA-N,NC(=O)OCC(Cl)(Cl)Cl,-1.2843,0.0,1.0,G1,192.429,1.4519,35.8254,9.0,2.0,1.0,6.0,1.0,54.0,0.0,0.0,0.0,0.0,52.32,66.99389196,3.394970924,110.1157128
2953,A-4948,iron(3+) phosphate,"InChI=1S/Fe.H3O4P/c;1-5(2,3)4/h;(H3,1,2,3,4)/q+3;/p-3",WBJZTOZJJYAKHQ-UHFFFAOYSA-K,[Fe+3].[O-][P]([O-])([O-])=O,-3.261464491,0.0,1.0,G1,150.815,-2.8271,7.6065,6.0,4.0,0.0,6.0,0.0,37.0,0.0,0.0,0.0,0.0,86.25,44.90224112,0.0,53.6836744
3182,A-5265,2-[(acetyloxy)methyl]prop-2-en-1-yl acetate,"InChI=1S/C8H12O4/c1-6(4-11-7(2)9)5-12-8(3)10/h1,4-5H2,2-3H3",FKAKGSJLTBVQOP-UHFFFAOYSA-N,CC(=O)OCC(=C)COC(C)=O,-0.77961667,0.0,1.0,G1,172.18,0.6688,42.406,12.0,4.0,0.0,4.0,4.0,68.0,0.0,0.0,0.0,0.0,52.6,71.15437746,3.46723517,175.2345412
8789,E-681,doxepin,"InChI=1S/C19H21NO/c1-20(2)13-7-11-17-16-9-4-3-8-15(16)14-21-19-12-6-5-10-18(17)19/h3-6,8-12H,7,13-14H2,1-2H3",ODQWQRRAPPTVAG-UHFFFAOYSA-N,CN(C)CCC=C2c1ccccc1COc3ccccc23,-3.4,0.0,1.0,G1,279.383,3.9624,87.466,21.0,2.0,0.0,2.0,3.0,108.0,2.0,0.0,1.0,3.0,12.47,126.2210368,2.065949703,608.620859
4823,B-1612,"2,4,5-trimethylpyridine","InChI=1S/C8H11N/c1-6-4-8(3)9-5-7(6)2/h4-5H,1-3H3",MNDSSKADVGDFDF-UHFFFAOYSA-N,Cc1cc(C)c(C)cn1,-0.7824,0.0,1.0,G1,121.183,2.00686,38.448,9.0,1.0,0.0,1.0,0.0,48.0,1.0,0.0,0.0,1.0,12.89,55.74587744,3.17167803,215.8076621
4177,B-827,nabam,"InChI=1S/C4H8N2S4.2Na/c7-3(8)5-1-2-6-4(9)10;;/h1-2H2,(H2,5,7,8)(H2,6,9,10);;/q;2*+1/p-2",UQJQVUOTMVCFHX-UHFFFAOYSA-L,[Na+].[Na+].[S-]C(=S)NCCNC([S-])=S,-0.1078,0.0,1.0,G1,256.354,-6.1628,55.9314,12.0,4.0,2.0,8.0,3.0,58.0,0.0,0.0,0.0,0.0,24.06,138.7882948,-4.05e-07,127.01955
7378,C-600,"thidiazuron; 1-(1,2,3-thiadiazol-5-yl)-3-phenylurea","InChI=1S/C9H8N4OS/c14-9(12-8-6-10-13-15-8)11-7-4-2-1-3-5-7/h1-6H,(H2,11,12,14)",HFCYZXMHUIHAQI-UHFFFAOYSA-N,O=C(NC1=CN=NS1)NC2=CC=CC=C2,-3.85,0.09595,2.0,G3,220.257,2.1821,58.9924,15.0,4.0,2.0,6.0,2.0,76.0,2.0,0.0,0.0,2.0,66.91,90.3038887,1.93519461,428.6376985
6453,B-3438,"2-oxetanone, 3-ethyl-4-methyl-, (3s-trans)-","InChI=1S/C6H10O2/c1-3-5-4(2)8-6(5)7/h4-5H,3H2,1-2H3/t4-,5-/m0/s1",PAIRTJOPUAQMRQ-WHFBIAKZSA-N,CC[C@H]1[C@H](C)OC1=O,-0.6665,0.0,1.0,G1,114.144,0.9579,29.335,8.0,2.0,0.0,2.0,1.0,46.0,0.0,1.0,1.0,1.0,26.3,48.83319778,2.399111469,109.0961628
8651,D-1856,bromosuccinic acid,"InChI=1S/C4H5BrO4/c5-2(4(8)9)1-3(6)7/h2H,1H2,(H,6,7)(H,8,9)",QQWGVQWAEANRTK-UHFFFAOYSA-N,OC(=O)CC(Br)C(O)=O,-0.215,0.0,1.0,G1,196.984,0.3092,32.6036,9.0,2.0,2.0,5.0,3.0,52.0,0.0,0.0,0.0,0.0,74.6,59.61313668,3.632432152,132.529325
3955,B-484,1-hexyn-3-ol,"InChI=1S/C6H10O/c1-3-5-6(7)4-2/h2,6-7H,3,5H2,1H3",LTFTWJYRQNTCHI-UHFFFAOYSA-N,CCCC(O)C#C,-0.4121,0.0,1.0,G1,98.145,0.7806,29.7478,7.0,1.0,1.0,1.0,2.0,40.0,0.0,0.0,0.0,0.0,20.23,44.35742074,3.040482576,70.73943006
8613,D-1660,"2-butenedioic acid, 2-methyl-, (e)-","InChI=1S/C5H6O4/c1-3(5(8)9)2-4(6)7/h2H,1H3,(H,6,7)(H,8,9)/b3-2+",HNEGQIOMVPPMNR-NSCUHMNNSA-N,C\C(=C/C(O)=O)C(O)=O,-0.694,0.0,1.0,G1,130.099,0.1019,29.0286,9.0,2.0,2.0,4.0,2.0,50.0,0.0,0.0,0.0,0.0,74.6,51.42092816,4.169214534,167.7968083
6125,B-3080,diclomezine,"InChI=1S/C11H8Cl2N2O/c1-6-8(12)4-7(5-9(6)13)10-2-3-11(16)15-14-10/h2-5H,1H3,(H,15,16)",UWQMKVBQKFHLCE-UHFFFAOYSA-N,Cc1c(Cl)cc(cc1Cl)C2=NNC(=O)C=C2,-5.5375,0.0,1.0,G1,255.104,3.05212,65.0507,16.0,2.0,1.0,5.0,1.0,82.0,2.0,0.0,0.0,2.0,45.75,102.0292435,2.564936613,549.2787009
2805,A-4685,"N,N-dimethyl-3,3-diphenyloxolan-2-iminium bromide","InChI=1S/C18H20NO.BrH/c1-19(2)17-18(13-14-20-17,15-9-5-3-6-10-15)16-11-7-4-8-12-16;/h3-12H,13-14H2,1-2H3;1H/q+1;/p-1",QJPXLCQSAFQCBD-UHFFFAOYSA-M,[Br-].C[N+](C)=C1OCCC1(c2ccccc2)c3ccccc3,-2.526575134,0.0,1.0,G1,346.268,0.0676,81.3484,21.0,1.0,0.0,3.0,2.0,110.0,2.0,1.0,1.0,3.0,12.24,136.4038602,1.61e-06,578.6812904
4780,B-1564,cyolane,"InChI=1S/C7H14NO3PS2/c1-3-10-12(9,11-4-2)8-7-13-5-6-14-7/h3-6H2,1-2H3",ILBONRFSLATCRE-UHFFFAOYSA-N,CCO[P](=O)(OCC)N=C1SCCS1,-2.5941,0.0,1.0,G1,255.301,3.0035,63.2095,14.0,5.0,0.0,7.0,5.0,82.0,0.0,1.0,1.0,1.0,47.89,92.81085535,2.659406031,241.3194623
7569,C-1027,thioridazine,"InChI=1S/C21H26N2S2/c1-22-13-6-5-7-16(22)12-14-23-18-8-3-4-9-20(18)25-21-11-10-17(24-2)15-19(21)23/h3-4,8-11,15-16H,5-7,12-14H2,1-2H3",KLBQZWRITKRQQV-UHFFFAOYSA-N,CSC1=CC2=C(SC3=C(C=CC=C3)N2CCC4CCCCN4C)C=C1,-5.82,0.0,1.0,G1,370.587,5.8856,110.68,25.0,4.0,0.0,4.0,4.0,132.0,2.0,1.0,2.0,4.0,6.48,159.5272014,1.630338086,746.4259503
680,A-1181,"2,6-dimethyloctan-2-ol","InChI=1S/C10H22O/c1-5-9(2)7-6-8-10(3,4)11/h9,11H,5-8H2,1-4H3",WRFXXJKURVTLSY-UHFFFAOYSA-N,CCC(C)CCCC(C)(C)O,-2.749344685,0.0,1.0,G1,158.285,2.9737,49.6038,11.0,1.0,1.0,1.0,5.0,68.0,0.0,0.0,0.0,0.0,20.23,70.81796381,3.275716275,91.53612452
7571,C-1037,triazolam,"InChI=1S/C17H12Cl2N4/c1-10-21-22-16-9-20-17(12-4-2-3-5-14(12)19)13-8-11(18)6-7-15(13)23(10)16/h2-8H,9H2,1H3",JOFWLTCLBGQGBO-UHFFFAOYSA-N,CC1=NN=C2CN=C(C3=CC=CC=C3Cl)C4=C(C=CC(=C4)Cl)[N]12,-4.08,0.0,1.0,G1,343.217,4.23352,91.901,23.0,4.0,0.0,6.0,1.0,114.0,3.0,0.0,1.0,4.0,43.07,142.9633231,2.027496174,943.5164678
939,A-1628,"3,7-dimethyloct-6-en-1-yl formate","InChI=1S/C11H20O2/c1-10(2)5-4-6-11(3)7-8-13-9-12/h5,9,11H,4,6-8H2,1-3H3",DZNVIZQPWLDQHI-UHFFFAOYSA-N,CC(CCOC=O)CCC=C(C)C,-4.055960832,0.0,1.0,G1,184.279,2.932,54.462,13.0,2.0,0.0,2.0,7.0,76.0,0.0,0.0,0.0,0.0,26.3,80.97413647,3.343148239,157.473214
8000,C-1869,6-methyl-3h-pteridin-4-one;  4-hydroxy-6-methylpteridine,"InChI=1S/C7H6N4O/c1-4-2-8-6-5(11-4)7(12)10-3-9-6/h2-3H,1H3,(H,8,9,10,12)",JQDJTEVUGHCYPQ-UHFFFAOYSA-N,CC1=NC2=C(N=CNC2=O)N=C1,-1.65,0.0,1.0,G1,162.152,0.02152,42.6907,12.0,4.0,1.0,5.0,0.0,60.0,2.0,0.0,0.0,2.0,71.53,67.51812379,2.975180596,476.0352248
6860,B-4130,"2,2',3,3',4,5-hexachlorobiphenyl",InChI=1S/C12H4Cl6/c13-7-3-1-2-5(9(7)15)6-4-8(14)11(17)12(18)10(6)16/h1-4H,VQQKIXKPMJTUMP-UHFFFAOYSA-N,Clc1cccc(c1Cl)c2cc(Cl)c(Cl)c(Cl)c2Cl,-8.4206,0.289863707,3.0,G5,360.882,7.274,81.938,18.0,0.0,0.0,6.0,1.0,94.0,2.0,0.0,0.0,2.0,0.0,134.3080947,2.760630061,620.4500799
8209,C-2184,7-(propoxycarbonyl)theophylline,"InChI=1S/C11H14N4O4/c1-4-5-19-11(18)15-6-12-8-7(15)9(16)14(3)10(17)13(8)2/h6H,4-5H2,1-3H3",QIBCKFKIAKARGI-UHFFFAOYSA-N,CCCOC(=O)[N]1C=NC2=C1C(=O)N(C)C(=O)N2C,-1.45,0.0,1.0,G1,266.257,-0.1716,67.252,19.0,8.0,0.0,8.0,2.0,102.0,2.0,0.0,0.0,2.0,88.12,107.3988507,2.701133867,752.3665625
9052,F-212,ethyl 2-[[(~{E})-4-oxopent-2-en-2-yl]amino]acetate,"InChI=1S/C9H15NO3/c1-4-13-9(12)6-10-7(2)5-8(3)11/h5,10H,4,6H2,1-3H3",GZHCYRZFDQBRLU-UHFFFAOYSA-N,CCOC(=O)CNC(C)=CC(C)=O,-0.59,0.0,1.0,G1,185.223,0.6319,49.0737,13.0,4.0,1.0,4.0,5.0,74.0,0.0,0.0,0.0,0.0,55.4,77.95563652,3.755556231,220.8997039
4674,B-1429,"acetic acid, dibromo-","InChI=1S/C2H2Br2O2/c3-1(4)2(5)6/h1H,(H,5,6)",SIEILFNCEFEENQ-UHFFFAOYSA-N,OC(=O)C(Br)Br,0.9861,0.0,1.0,G1,217.844,1.1869,29.2778,6.0,1.0,1.0,4.0,1.0,36.0,0.0,0.0,0.0,0.0,37.3,51.79504421,3.257586161,60.56842503
5989,B-2926,cimetidine,"InChI=1S/C10H16N6S/c1-8-9(16-7-15-8)5-17-4-3-13-10(12-2)14-6-11/h7H,3-5H2,1-2H3,(H,15,16)(H2,12,13,14)",AQIXAKUUQRKLND-UHFFFAOYSA-N,CN=C(NCCSCc1nc[nH]c1C)NC#N,-1.4298,0.159306528,4.0,G5,252.347,0.5974,69.5971,17.0,4.0,3.0,7.0,5.0,92.0,1.0,0.0,0.0,1.0,88.89,104.9255429,2.13094103,405.1737762
1790,A-2937,N-ethyl(propan-2-yloxy)carbothioamide,"InChI=1S/C6H13NOS/c1-4-7-6(9)8-5(2)3/h5H,4H2,1-3H3,(H,7,9)",KIACEOHPIRTHMI-UHFFFAOYSA-N,CCNC(=S)OC(C)C,-1.744788784,0.024022919,2.0,G3,147.243,1.3058,42.4957,9.0,2.0,1.0,3.0,2.0,54.0,0.0,0.0,0.0,0.0,21.26,61.58614926,3.271192049,93.05865003
5852,B-2773,butralin,"InChI=1S/C14H21N3O4/c1-6-9(2)15-13-11(16(18)19)7-10(14(3,4)5)8-12(13)17(20)21/h7-9,15H,6H2,1-5H3",SPNQRCTZKIBOAX-UHFFFAOYSA-N,CCC(C)Nc1c(cc(cc1[N+]([O-])=O)C(C)(C)C)[N+]([O-])=O,-5.4703,0.0,1.0,G1,295.339,4.0109,81.8265,21.0,5.0,1.0,7.0,5.0,116.0,1.0,0.0,0.0,1.0,98.31,123.2067537,3.588145947,528.8229269
424,A-728,methyl nicotinate,"InChI=1S/C7H7NO2/c1-10-7(9)6-3-2-4-8-5-6/h2-5H,1H3",YNBADRVTZLEFNH-UHFFFAOYSA-N,COC(=O)c1cccnc1,-0.459550859,0.0,1.0,G1,137.138,0.8682,35.5765,10.0,3.0,0.0,3.0,1.0,52.0,1.0,0.0,0.0,1.0,39.19,58.65600266,2.852627929,220.307533
1619,A-2708,"3-hydroxy-2,2-dimethylpropyl heptanoate","InChI=1S/C7H14O2.C5H12O2/c1-2-3-4-5-6-7(8)9;1-5(2,3-6)4-7/h2-6H2,1H3,(H,8,9);6-7H,3-4H2,1-2H3",VRYUGRNJSPQWJC-UHFFFAOYSA-N,CCCCCCC(O)=O.CC(C)(CO)CO,-6.670869008,0.0,1.0,G1,234.336,2.0386,64.3474,16.0,3.0,3.0,4.0,7.0,98.0,0.0,0.0,0.0,0.0,77.76,98.3036688,0.0,160.4016955
6880,B-4164,trimethyl phosphate,"InChI=1S/C3H9O4P/c1-5-8(4,6-2)7-3/h1-3H3",WVLBCYQITXONBZ-UHFFFAOYSA-N,CO[P](=O)(OC)OC,0.5526,0.0,1.0,G1,140.075,1.0337,28.6335,8.0,4.0,0.0,5.0,3.0,50.0,0.0,0.0,0.0,0.0,44.76,48.35938162,3.791009813,82.43699516
6690,B-3810,p-methyl benzyl alcohol,"InChI=1S/C8H10O/c1-7-2-4-8(6-9)5-3-7/h2-5,9H,6H2,1H3",KMTDMTZBNYGUNX-UHFFFAOYSA-N,Cc1ccc(CO)cc1,-1.1999,0.0,1.0,G1,122.167,1.48732,37.1018,9.0,1.0,1.0,1.0,1.0,48.0,1.0,0.0,0.0,1.0,20.23,54.9555211,2.881555878,176.264053
6913,B-4212,o-methyl carbamate,"InChI=1S/C2H5NO2/c1-5-2(3)4/h1H3,(H2,3,4)",GTCAXTIRRLKXRU-UHFFFAOYSA-N,COC(N)=O,0.964,0.0,1.0,G1,75.067,-0.2885,16.5924,5.0,2.0,1.0,3.0,0.0,30.0,0.0,0.0,0.0,0.0,52.32,29.71915117,2.847378923,42.91260938
1258,A-2176,"1,4-dimethyl 2-[(E)-2-{2-oxo-1-[(2-oxo-2,3-dihydro-1H-1,3-benzodiazol-5-yl)carbamoyl]propyl}diazen-1-yl]benzene-1,4-dicarboxylate","InChI=1S/C21H19N5O7/c1-10(27)17(18(28)22-12-5-7-14-16(9-12)24-21(31)23-14)26-25-15-8-11(19(29)32-2)4-6-13(15)20(30)33-3/h4-9,17H,1-3H3,(H,22,28)(H2,23,24,31)",KEZJTZQNDCLRDB-UHFFFAOYSA-N,COC(=O)c1ccc(C(=O)OC)c(c1)N=NC(C(C)=O)C(=O)Nc2ccc3NC(=O)Nc3c2,-6.314069371,0.0,1.0,G1,453.411,2.1094,115.6551,33.0,9.0,3.0,12.0,7.0,170.0,3.0,0.0,0.0,3.0,172.14,185.5498482,1.898331746,1338.267208
9209,F-485,"2,3,4-trichloro-6-methoxyphenol","InChI=1S/C7H5Cl3O2/c1-12-4-2-3(8)5(9)6(10)7(4)11/h2,11H,1H3",NIAJPNQTKGWEOI-UHFFFAOYSA-N,COC1=CC(Cl)=C(Cl)C(Cl)=C1O,-3.66,0.0,1.0,G1,227.474,3.361,49.6888,12.0,2.0,1.0,5.0,1.0,66.0,1.0,0.0,0.0,1.0,29.46,84.6139229,3.387046329,312.010065
924,A-1600,nonan-2-one,"InChI=1S/C9H18O/c1-3-4-5-6-7-8-9(2)10/h3-8H2,1-2H3",VKCYHJWLYTUGCC-UHFFFAOYSA-N,CCCCCCCC(C)=O,-2.930311379,0.173328719,2.0,G3,142.242,2.9359,44.057,10.0,1.0,0.0,1.0,6.0,60.0,0.0,0.0,0.0,0.0,17.07,63.82031004,2.838589122,86.72905595
8778,E-660,DEF,"InChI=1S/C12H27OPS3/c1-4-7-10-15-14(13,16-11-8-5-2)17-12-9-6-3/h4-12H2,1-3H3",ZOKXUAHZSKEQSS-UHFFFAOYSA-N,O=P(SCCCC)(SCCCC)SCCCC,-5.14,0.24715,2.0,G3,314.522,6.6944,89.7045,17.0,4.0,0.0,5.0,12.0,104.0,0.0,0.0,0.0,0.0,17.07,119.6582981,3.998982973,178.6432095
7924,C-1752,1-acetylamino-3-isothiocyanatobenzene,"InChI=1S/C9H8N2OS/c1-7(12)11-9-4-2-3-8(5-9)10-6-13/h2-5H,1H3,(H,11,12)",HLWVGQKSSIHUAX-UHFFFAOYSA-N,CC(=O)NC1=CC=CC(=C1)N=C=S,-3.53,0.0,1.0,G1,192.243,2.3793,55.4317,13.0,3.0,1.0,4.0,2.0,66.0,1.0,0.0,0.0,1.0,41.46,81.49171648,2.907432169,369.6323805
7550,C-995,benzoximate,"InChI=1S/C18H18ClNO5/c1-4-24-20-17(25-18(21)12-8-6-5-7-9-12)15-14(22-2)11-10-13(19)16(15)23-3/h5-11H,4H2,1-3H3/b20-17-",BZMIHNKNQJJVRO-JZJYNLBNSA-N,CCO/N=C(OC(=O)C1=CC=CC=C1)/C2=C(OC)C(=CC=C2OC)Cl,-4.08,0.0,1.0,G1,363.797,3.9123,94.5765,25.0,6.0,0.0,7.0,6.0,132.0,2.0,0.0,0.0,2.0,66.35,150.4464802,2.484706756,761.5617836
5490,B-2360,mcpb-ethyl,"InChI=1S/C13H17ClO3/c1-3-16-13(15)5-4-8-17-12-7-6-11(14)9-10(12)2/h6-7,9H,3-5,8H2,1-2H3",XNKARWLGLZGMGX-UHFFFAOYSA-N,CCOC(=O)CCCOc1ccc(Cl)cc1C,-4.4095,0.0,1.0,G1,256.729,3.37052,67.551,17.0,3.0,0.0,4.0,6.0,94.0,1.0,0.0,0.0,1.0,35.53,106.6778767,2.287026248,376.9273662
6153,B-3111,flutolanil,"InChI=1S/C17H16F3NO2/c1-11(2)23-13-7-5-6-12(10-13)21-16(22)14-8-3-4-9-15(14)17(18,19)20/h3-11H,1-2H3,(H,21,22)",PTCGDEVVHUXTMP-UHFFFAOYSA-N,CC(C)Oc1cccc(NC(=O)c2ccccc2C(F)(F)F)c1,-4.6947,0.08235,2.0,G3,323.314,4.7449,81.6032,23.0,2.0,1.0,6.0,4.0,122.0,2.0,0.0,0.0,2.0,38.33,131.6347436,2.23461549,696.2329896
445,A-779,"2,4,6-trichloro-1,3,5-triazine",InChI=1S/C3Cl3N3/c4-1-7-2(5)9-3(6)8-1,MGNCLNQXLYJVJD-UHFFFAOYSA-N,Clc1nc(Cl)nc(Cl)n1,-2.622338856,0.057267988,2.0,G3,184.413,1.8318,34.857,9.0,3.0,0.0,6.0,0.0,48.0,1.0,0.0,0.0,1.0,38.67,66.00014574,3.16567031,175.0651777
1958,A-3227,copper(2+) diacetate,"InChI=1S/2C2H4O2.Cu/c2*1-2(3)4;/h2*1H3,(H,3,4);/q;;+2/p-2",OPQARKPSCNTWTJ-UHFFFAOYSA-L,[Cu++].CC([O-])=O.CC([O-])=O,-0.375535712,0.0,1.0,G1,181.634,-2.4901,21.362,9.0,4.0,0.0,5.0,0.0,57.0,0.0,0.0,0.0,0.0,80.26,63.3470405,-7.2e-08,70.56842503
5568,B-2451,"benzoic acid, 4-hydroxy-3-iodo-, ethyl ester","InChI=1S/C9H9IO3/c1-2-13-9(12)6-3-4-8(11)7(10)5-6/h3-5,11H,2H2,1H3",HOAXKZYYZXASLJ-UHFFFAOYSA-N,CCOC(=O)c1ccc(O)c(I)c1,-3.4924,0.0,1.0,G1,292.072,2.1735,56.7803,13.0,3.0,1.0,4.0,2.0,70.0,1.0,0.0,0.0,1.0,46.53,89.85736867,2.902949211,322.6358948
8759,E-459,pyridine,InChI=1S/C5H5N/c1-2-4-6-5-3-1/h1-5H,JUJWROOIHBZHMG-UHFFFAOYSA-N,c1ccccn1,0.76,0.1709,2.0,G3,79.102,1.0816,24.237,6.0,1.0,0.0,1.0,0.0,30.0,1.0,0.0,0.0,1.0,12.89,36.6510511,3.0,75.86113959
9224,F-519,7-aminonaphthalene-1-sulfonic acid,"InChI=1S/C10H9NO3S/c11-8-5-4-7-2-1-3-10(9(7)6-8)15(12,13)14/h1-6H,11H2,(H,12,13,14)",FYVOTMMSGKWFPK-UHFFFAOYSA-N,NC1=CC2=C(S(=O)(=O)O)C=CC=C2C=C1,-2.54,0.015,2.0,G3,223.253,1.6687,58.175,15.0,3.0,2.0,5.0,1.0,78.0,2.0,0.0,0.0,2.0,80.39,87.08159436,2.922802039,619.6001476
9517,F-897,4-(butyl-methylamino)diazenylbenzoic acid,"InChI=1S/C12H17N3O2/c1-3-4-9-15(2)14-13-11-7-5-10(6-8-11)12(16)17/h5-8H,3-4,9H2,1-2H3,(H,16,17)",NIHJLLRQVKJRSV-UHFFFAOYSA-N,CCCCN(C)N=NC1=CC=C(C(=O)O)C=C1,-1.81,0.0,1.0,G1,235.287,3.1154,65.4553,17.0,3.0,1.0,5.0,6.0,92.0,1.0,0.0,0.0,1.0,65.26,100.7535592,2.56119454,387.242144
8797,E-726,naepaine,"InChI=1S/C14H22N2O2/c1-2-3-4-9-16-10-11-18-14(17)12-5-7-13(15)8-6-12/h5-8,16H,2-4,9-11,15H2,1H3",UYXHCVFXDBNRQW-UHFFFAOYSA-N,c1cc(N)ccc1C(=O)OCCNCCCCC,-3.27,0.0,1.0,G1,250.342,2.2054,73.5316,18.0,4.0,2.0,4.0,8.0,100.0,1.0,0.0,0.0,1.0,64.35,108.5157602,2.117836776,349.3165535
857,A-1482,"(2E)-1-(2,6,6-trimethylcyclohex-1-en-1-yl)but-2-en-1-one","InChI=1S/C15H26O/c1-7-15(6)9-8-12(14(4,5)16)10-13(15)11(2)3/h7,12-13,16H,1-2,8-10H2,3-6H3/t12-,13+,15-/m1/s1",GFJIQNADMLPFOW-VNHYZAJKSA-N,CC(=C)[C@@H]1C[C@@H](CC[C@@]1(C)C=C)C(C)(C)O,-3.059278372,0.0,1.0,G1,222.372,3.942,70.2468,16.0,1.0,1.0,1.0,3.0,92.0,0.0,1.0,1.0,1.0,20.23,100.2576372,2.895124806,284.3003018
6727,B-3912,methyl propionate,"InChI=1S/C4H8O2/c1-3-4(5)6-2/h3H2,1-2H3",RJUFJBKOKNCXHH-UHFFFAOYSA-N,CCC(=O)OC,-0.1498,0.0,1.0,G1,88.106,0.5694,22.307,6.0,2.0,0.0,2.0,1.0,36.0,0.0,0.0,0.0,0.0,26.3,37.1091447,2.988160882,43.509775
5619,B-2507,isopropyl t-butyl ether,"InChI=1S/C7H16O/c1-6(2)8-7(3,4)5/h6H,1-5H3",HNFSPSWQNZVCTB-UHFFFAOYSA-N,CC(C)OC(C)(C)C,-2.3662,0.0,1.0,G1,116.204,2.2099,35.974,8.0,1.0,0.0,1.0,1.0,50.0,0.0,0.0,0.0,0.0,9.23,52.04244894,3.388924101,59.27730244
4277,B-956,".beta.-alanine, n-(aminocarbonyl)-","InChI=1S/C4H8N2O3/c5-4(9)6-2-1-3(7)8/h1-2H2,(H,7,8)(H3,5,6,9)",JSJWCHRYRHKBBW-UHFFFAOYSA-N,NC(=O)NCCC(O)=O,-0.8014,0.0,1.0,G1,132.119,-0.8706,29.8389,9.0,2.0,3.0,5.0,3.0,52.0,0.0,0.0,0.0,0.0,92.42,51.8411082,3.102825942,108.9811554
6398,B-3380,"phosphoric acid, dibutyl 4-ethoxybutyl ester","InChI=1S/C14H31O5P/c1-4-7-12-17-20(15,18-13-8-5-2)19-14-10-9-11-16-6-3/h4-14H2,1-3H3",XGWQSRFFKSAKGU-UHFFFAOYSA-N,CCCCO[P](=O)(OCCCC)OCCCCOCC,-2.6468,0.0,1.0,G1,310.371,4.5612,81.0055,20.0,5.0,0.0,6.0,15.0,122.0,0.0,0.0,0.0,0.0,53.99,123.4872901,3.926549972,233.718762
4868,B-1668,2-(acetyloxy)-4-bromo-benzoic acid,"InChI=1S/C9H7BrO4/c1-5(11)14-8-3-2-6(10)4-7(8)9(12)13/h2-4H,1H3,(H,12,13)",VRJBEVQGJOSGOX-UHFFFAOYSA-N,CC(=O)Oc1ccc(Br)cc1C(O)=O,-2.5895,0.0,1.0,G1,259.055,2.0726,52.4103,14.0,3.0,1.0,5.0,2.0,74.0,1.0,0.0,0.0,1.0,63.6,88.62460025,3.144594643,386.3983861
695,A-1211,N-ethylaniline,"InChI=1S/C8H11N/c1-2-9-8-6-4-3-5-7-8/h3-7,9H,2H2,1H3",OJGMBLNIHDZDGS-UHFFFAOYSA-N,CCNc1ccccc1,-1.652077936,0.024673361,2.0,G3,121.183,2.1184,40.6057,9.0,1.0,1.0,1.0,2.0,48.0,1.0,0.0,0.0,1.0,12.03,55.71114953,2.61489994,157.4784208
3028,A-5070,2-(benzoyloxy)ethyl benzoate,"InChI=1S/C16H14O4/c17-15(13-7-3-1-4-8-13)19-11-12-20-16(18)14-9-5-2-6-10-14/h1-10H,11-12H2",XFDQLDNQZFOAFK-UHFFFAOYSA-N,O=C(OCCOC(=O)c1ccccc1)c2ccccc2,-5.070092502,0.0,1.0,G1,270.284,2.7004,73.449,20.0,4.0,0.0,4.0,5.0,102.0,2.0,0.0,0.0,2.0,52.6,116.4984004,1.719565134,510.0454481