,ID,Name,InChI,InChIKey,SMILES,Solubility,SD,Ocurrences,Group,MolWt,MolLogP,MolMR,HeavyAtomCount,NumHAcceptors,NumHDonors,NumHeteroatoms,NumRotatableBonds,NumValenceElectrons,NumAromaticRings,NumSaturatedRings,NumAliphaticRings,RingCount,TPSA,LabuteASA,BalabanJ,BertzCT
6330,B-3307,fluxofenim,"InChI=1S/C12H11ClF3NO3/c13-9-3-1-8(2-4-9)11(12(14,15)16)17-20-7-10-18-5-6-19-10/h1-4,10H,5-7H2/b17-11+",UKSLKNUCVPZQCQ-GZTJUZNOSA-N,FC(F)(F)C(=N/OCC1OCCO1)/c2ccc(Cl)cc2,-4.0138,0.0,1.0,G1,309.671,2.9959,65.688,20.0,4.0,0.0,8.0,4.0,110.0,1.0,1.0,1.0,2.0,40.05,117.6050938,2.082248547,469.8310458
6102,B-3054,propiconazole,"InChI=1S/C15H17Cl2N3O2/c1-2-3-12-7-21-15(22-12,8-20-10-18-9-19-20)13-5-4-11(16)6-14(13)17/h4-6,9-10,12H,2-3,7-8H2,1H3",STJLVHWMYQXCPB-UHFFFAOYSA-N,CCCC1COC(Cn2cncn2)(O1)c3ccc(Cl)cc3Cl,-3.4929,0.0,1.0,G1,342.226,3.6534,83.895,22.0,5.0,0.0,7.0,5.0,118.0,2.0,1.0,1.0,3.0,49.17,138.6977653,1.956623707,635.7227267
2917,A-4890,7-amino-3-methyl-8-oxo-5-thia-1-azabicyclo[4.2.0]oct-2-ene-2-carboxylic acid,"InChI=1S/C8H10N2O3S/c1-3-2-14-7-4(9)6(11)10(7)5(3)8(12)13/h4,7H,2,9H2,1H3,(H,12,13)",NVIAYEIXYQCDAN-UHFFFAOYSA-N,CC1=C(N2C(SC1)C(N)C2=O)C(O)=O,-3.045355413,0.0,1.0,G1,214.246,-0.4126,51.4032,14.0,4.0,2.0,6.0,1.0,76.0,0.0,1.0,2.0,2.0,83.63,84.93269283,2.366773633,352.4955546
5706,B-2605,"benzoic acid, 5-bromo-2-chloro-","InChI=1S/C7H4BrClO2/c8-4-1-2-6(9)5(3-4)7(10)11/h1-3H,(H,10,11)/p-1",FGERXQWKKIVFQG-UHFFFAOYSA-M,[O-]C(=O)c1cc(Br)ccc1Cl,-1.952,0.0,1.0,G1,234.456,1.466,43.4825,11.0,2.0,0.0,4.0,1.0,58.0,1.0,0.0,0.0,1.0,40.13,76.92291492,3.23220887,298.4920898
8368,C-2413,coroxon,"InChI=1S/C14H16ClO6P/c1-4-18-22(17,19-5-2)21-10-6-7-11-9(3)13(15)14(16)20-12(11)8-10/h6-8H,4-5H2,1-3H3",FDYMERLIFOUIRZ-UHFFFAOYSA-N,CCO[P](=O)(OCC)OC1=CC2=C(C=C1)C(=C(Cl)C(=O)O2)C,-3.18,0.0,1.0,G1,346.703,4.31472,83.7175,22.0,6.0,0.0,8.0,6.0,120.0,2.0,0.0,0.0,2.0,74.97,132.0976297,2.432021375,774.7321034
7278,C-244,methyl  4-methoxybenzoate,"InChI=1S/C9H10O3/c1-11-8-5-3-7(4-6-8)9(10)12-2/h3-6H,1-2H3",DDIZAANNODHTRB-UHFFFAOYSA-N,COC(=O)C1=CC=C(OC)C=C1,-2.34,0.0362,2.0,G3,166.176,1.4818,44.3335,12.0,3.0,0.0,3.0,2.0,64.0,1.0,0.0,0.0,1.0,35.53,70.91484202,2.843524062,263.6070663
5142,B-1970,"urea, chloro-","InChI=1S/CH3ClN2O/c2-4-1(3)5/h(H3,3,4,5)",RMXVHZFHSKRNJN-UHFFFAOYSA-N,NC(=O)NCl,0.3256,0.0,1.0,G1,94.501,-0.1915,18.5721,5.0,1.0,2.0,4.0,0.0,30.0,0.0,0.0,0.0,0.0,55.12,34.20546307,2.847378923,44.91260938
932,A-1617,"2,3,4,5,6,7-hexahydro-1H-isoindole-1,3-dione","InChI=1S/C8H9NO2/c10-7-5-3-1-2-4-6(5)8(11)9-7/h1-4H2,(H,9,10,11)",AFJWMGOTLUUGHF-UHFFFAOYSA-N,O=C1NC(=O)C2=C1CCCC2,-1.974517726,0.0,1.0,G1,151.165,0.5134,38.6437,11.0,2.0,1.0,3.0,0.0,58.0,0.0,0.0,2.0,2.0,46.17,64.46548687,2.399261941,239.2656234
4351,B-1041,tetranitromethane,"InChI=1S/CN4O8/c6-2(7)1(3(8)9,4(10)11)5(12)13",NYTOUQBROMCLBJ-UHFFFAOYSA-N,[O-][N+](=O)C([N+]([O-])=O)([N+]([O-])=O)[N+]([O-])=O,-2.3381,0.0,1.0,G1,196.031,-1.2955,30.7086,13.0,8.0,0.0,12.0,4.0,72.0,0.0,0.0,0.0,0.0,172.56,67.35115392,5.601028024,231.0093771
134,A-225,"2-(2,6-dimethylphenoxy)acetic acid","InChI=1S/C10H12O3/c1-7-4-3-5-8(2)10(7)13-6-9(11)12/h3-5H,6H2,1-2H3,(H,11,12)",MLBCURLNKYKBEQ-UHFFFAOYSA-N,Cc1cccc(C)c1OCC(O)=O,-2.256644531,0.4791308,3.0,G5,180.203,1.76684,49.0468,13.0,2.0,1.0,3.0,3.0,70.0,1.0,0.0,0.0,1.0,46.53,76.96047266,2.806920562,297.6959388
8586,D-1445,piperine,"InChI=1S/C17H19NO3/c19-17(18-10-4-1-5-11-18)7-3-2-6-14-8-9-15-16(12-14)21-13-20-15/h2-3,6-9,12H,1,4-5,10-11,13H2/b6-2+,7-3+",MXXWOMGUGJBKIW-YPCIICBESA-N,O=C(/C=C/C=C/c1ccc2OCOc2c1)N3CCCCC3,-3.853,0.0,1.0,G1,285.343,2.9972,81.17,21.0,3.0,0.0,4.0,3.0,110.0,1.0,1.0,2.0,3.0,38.77,124.2033442,1.559654715,571.3979945
7318,C-401,"propazine;  2-chloro-4,6-bis(isopropylamino)-1,3,5-triazine","InChI=1S/C9H16ClN5/c1-5(2)11-8-13-7(10)14-9(15-8)12-6(3)4/h5-6H,1-4H3,(H2,11,12,13,14,15)",WJNRPILHGGKWCK-UHFFFAOYSA-N,CC(C)NC1=NC(=NC(=N1)Cl)NC(C)C,-4.46,0.208200817,3.0,G5,229.715,2.1656,62.3544,15.0,5.0,2.0,6.0,4.0,84.0,1.0,0.0,0.0,1.0,62.73,94.68299034,2.843636436,298.0287844
7007,B-4341,tetraethylsilane,"InChI=1S/C8H20Si/c1-5-9(6-2,7-3)8-4/h5-8H2,1-4H3",VCZQFJFZMMALHB-UHFFFAOYSA-N,CC[Si](CC)(CC)CC,-5.6475,0.0,1.0,G1,144.334,3.5148,47.678,9.0,0.0,0.0,1.0,4.0,56.0,0.0,0.0,0.0,0.0,0.0,60.67483307,3.824684203,47.45811191
4136,B-772,"2-cyclohexyl-4,6-dinitrophenol","InChI=1S/C12H14N2O5/c15-12-10(8-4-2-1-3-5-8)6-9(13(16)17)7-11(12)14(18)19/h6-8,15H,1-5H2",QJYHUJAGJUHXJN-UHFFFAOYSA-N,Oc1c(cc(cc1[N+]([O-])=O)[N+]([O-])=O)C2CCCCC2,-4.2492,0.0,1.0,G1,266.253,3.2563,67.2416,19.0,5.0,1.0,7.0,3.0,102.0,1.0,1.0,1.0,2.0,106.51,108.7154098,2.507758804,523.0961822
2491,A-4167,2-chlorobenzenethiol,"InChI=1S/C6H5ClS/c7-5-3-1-2-4-6(5)8/h1-4,8H",PWOBDMNCYMQTCE-UHFFFAOYSA-N,Sc1ccccc1Cl,-1.780035133,0.439450989,3.0,G5,144.626,2.6287,38.704,8.0,1.0,1.0,2.0,0.0,42.0,1.0,0.0,0.0,1.0,0.0,58.88973601,3.134861511,164.6383389
5912,B-2840,minoxidil,"InChI=1S/C9H15N5O/c10-7-6-8(12-9(11)14(7)15)13-4-2-1-3-5-13/h6,11,15H,1-5,10H2",ZIMGGGWCDYVHOY-UHFFFAOYSA-N,NC1=CC(=NC(=N)N1O)N2CCCCC2,-1.9782,0.0,1.0,G1,209.253,0.17237,55.7426,15.0,6.0,3.0,6.0,1.0,82.0,1.0,1.0,1.0,2.0,91.16,87.4328976,2.316398284,407.4539977
1713,A-2831,2-(chloromethyl)oxirane,"InChI=1S/C3H5ClO/c4-1-3-2-5-3/h3H,1-2H2",BRLQWZUYTZBJKN-UHFFFAOYSA-N,ClCC1CO1,-0.147373679,0.0,1.0,G1,92.525,0.624,20.46,5.0,1.0,0.0,2.0,1.0,30.0,0.0,1.0,1.0,1.0,12.53,35.88011556,1.998939485,33.87430298
2577,A-4318,"4,5-bis(hydroxymethyl)-2-methylpyridin-3-ol hydrochloride","InChI=1S/C8H11NO3.ClH/c1-5-8(12)7(4-11)6(3-10)2-9-5;/h2,10-12H,3-4H2,1H3;1H",ZUFQODAHGAHPFQ-UHFFFAOYSA-N,[H+].[Cl-].Cc1ncc(CO)c(CO)c1O,-0.111712583,0.070506291,2.0,G3,205.641,-2.80328,43.5964,13.0,4.0,3.0,5.0,2.0,74.0,1.0,0.0,0.0,1.0,73.58,83.76647032,0.0,296.1600352
2967,A-4971,tin(4+) ion disulfanediide,InChI=1S/2S.Sn/q2*-2;+4,TUTLDIXHQPSHHQ-UHFFFAOYSA-N,[S--].[S--].[Sn+4],-3.580841851,0.0,1.0,G1,182.845,-0.3856,20.484,3.0,0.0,0.0,3.0,0.0,16.0,0.0,0.0,0.0,0.0,0.0,50.83266952,0.0,2.754887502
3535,A-5922,N-(5-chloro-2-methylphenyl)-3-hydroxy-4-[(E)-2-[2-methoxy-5-(phenylcarbamoyl)phenyl]diazen-1-yl]naphthalene-2-carboxamide,"InChI=1S/C32H25ClN4O4/c1-19-12-14-22(33)18-26(19)35-32(40)25-16-20-8-6-7-11-24(20)29(30(25)38)37-36-27-17-21(13-15-28(27)41-2)31(39)34-23-9-4-3-5-10-23/h3-18,36H,1-2H3,(H,34,39)(H,35,40)/b37-29-",XBIDLTIKWLPFIC-GPFIVKHLSA-N,COc1ccc(cc1N\N=C2/C(=O)C(=Cc3ccccc23)C(=O)Nc4cc(Cl)ccc4C)C(=O)Nc5ccccc5,-7.752070739,0.0,1.0,G1,565.029,6.33032,161.7936,41.0,6.0,3.0,9.0,7.0,204.0,4.0,0.0,1.0,5.0,108.89,241.2432113,1.44531449,1731.175032
8875,E-999,Permethrin,"InChI=1S/C21H20Cl2O3/c1-21(2)17(12-18(22)23)19(21)20(24)25-13-14-7-6-10-16(11-14)26-15-8-4-3-5-9-15/h3-12,17,19H,13H2,1-2H3",RLLPVAHGXHCWKJ-UHFFFAOYSA-N,CC1(C)C(C=C(Cl)Cl)C1C(=O)OCc3cccc(Oc2ccccc2)c3,-6.29,0.76,2.0,G2,391.294,6.1133,103.304,26.0,3.0,0.0,5.0,6.0,136.0,2.0,1.0,1.0,3.0,35.53,163.0726872,1.592183546,811.0157196
4664,B-1416,n-amyl acetate,"InChI=1S/C7H14O2/c1-3-4-5-6-9-7(2)8/h3-6H2,1-2H3",PGMYKACGEOXYJE-UHFFFAOYSA-N,CCCCCOC(C)=O,-1.8841,0.0,1.0,G1,130.187,1.7397,36.158,9.0,2.0,0.0,2.0,4.0,54.0,0.0,0.0,0.0,0.0,26.3,56.20397104,2.828868135,78.98533617
1016,A-1759,"ethyl 5-oxo-1-phenyl-4,5-dihydro-1H-pyrazole-3-carboxylate","InChI=1S/C12H12N2O3/c1-2-17-12(16)10-8-11(15)14(13-10)9-6-4-3-5-7-9/h3-7H,2,8H2,1H3",WBFXQKNQVZMOSQ-UHFFFAOYSA-N,CCOC(=O)C1=NN(C(=O)C1)c2ccccc2,-3.255345443,0.0,1.0,G1,232.239,1.3424,62.613,17.0,4.0,0.0,5.0,3.0,88.0,1.0,0.0,1.0,2.0,58.97,98.67710626,2.203521435,467.8989022
5967,B-2901,triadimefon,"InChI=1S/C14H16ClN3O2/c1-14(2,3)12(19)13(18-9-16-8-17-18)20-11-6-4-10(15)5-7-11/h4-9,13H,1-3H3",WURBVZBTWMNKQT-UHFFFAOYSA-N,CC(C)(C)C(=O)C(Oc1ccc(Cl)cc1)n2cncn2,-3.6137,0.0,1.0,G1,293.754,3.1243,75.601,20.0,5.0,0.0,6.0,4.0,106.0,2.0,0.0,0.0,2.0,57.01,122.083365,2.28122355,573.4665262
1443,A-2485,"3,3'-[[4-[(2-chloro-4-nitrophenyl)azo]phenyl]imino]bis[propiononitrile]","InChI=1S/C18H15ClN6O2/c19-17-13-16(25(26)27)7-8-18(17)23-22-14-3-5-15(6-4-14)24(11-1-9-20)12-2-10-21/h3-8,13H,1-2,11-12H2",ZXXVVTBKBDDTSE-UHFFFAOYSA-N,[O-][N+](=O)c1ccc(N=Nc2ccc(cc2)N(CCC#N)CCC#N)c(Cl)c1,-4.281954413,0.0,1.0,G1,382.811,5.29736,101.3974,27.0,7.0,0.0,9.0,8.0,136.0,2.0,0.0,0.0,2.0,118.68,160.6261628,2.121308221,896.9295836
9112,F-333,"5,5-dipropyl-1,3-diazinane-2,4,6-trione","InChI=1S/C10H16N2O3/c1-3-5-10(6-4-2)7(13)11-9(15)12-8(10)14/h3-6H2,1-2H3,(H2,11,12,13,14,15)",RCOUWKSZRXJXLA-UHFFFAOYSA-N,CCCC1(CCC)C(=O)NC(=O)NC1=O,-2.53,0.00935,2.0,G3,212.249,0.939,53.9304,15.0,3.0,2.0,5.0,4.0,84.0,0.0,1.0,1.0,1.0,75.27,88.60218957,2.970442649,271.0426262
9012,F-152,"2,8-Dihydroxyadenine","InChI=1S/C5H5N5O2/c6-2-1-3(9-4(11)7-1)10-5(12)8-2/h(H5,6,7,8,9,10,11,12)",XFBOJHLYDJZYSP-UHFFFAOYSA-N,NC1=C2NC(=O)N=C2NC(=O)N1,-3.46,0.0,1.0,G1,167.128,-1.5267,40.8635,12.0,4.0,4.0,7.0,0.0,62.0,0.0,0.0,2.0,2.0,120.42,64.99856147,2.969548295,491.4885441
7731,C-1379,dicapthon;  dicaptan,"InChI=1S/C8H9ClNO5PS/c1-13-16(17,14-2)15-8-4-3-6(10(11)12)5-7(8)9/h3-5H,1-2H3",OTKXWJHPGBRXCR-UHFFFAOYSA-N,CO[P](=S)(OC)OC1=C(Cl)C=C(C=C1)[N+]([O-])=O,-4.68,0.1868,2.0,G3,297.656,3.1443,67.0374,17.0,6.0,0.0,9.0,5.0,94.0,1.0,0.0,0.0,1.0,70.83,107.8380931,3.012177304,474.9833845
9017,F-162,2-(carbamoylamino)hexanoic acid,"InChI=1S/C7H14N2O3/c1-2-3-4-5(6(10)11)9-7(8)12/h5H,2-4H2,1H3,(H,10,11)(H3,8,9,12)",CRTBNFJSWPZSQM-UHFFFAOYSA-N,CCCCC(NC(N)=O)C(=O)O,-2.16,0.0,1.0,G1,174.2,0.2981,43.6679,12.0,2.0,3.0,5.0,5.0,70.0,0.0,0.0,0.0,0.0,92.42,70.93593455,3.865424553,170.0344236
4734,B-1508,"9,10-dihydrophenanthrene","InChI=1S/C14H12/c1-3-7-13-11(5-1)9-10-12-6-2-4-8-14(12)13/h1-8H,9-10H2",XXPBFNVKTVJZKF-UHFFFAOYSA-N,C1Cc2ccccc2c3ccccc13,-4.6347,0.0,1.0,G1,180.25,3.4522,59.286,14.0,0.0,0.0,0.0,0.0,68.0,2.0,0.0,1.0,3.0,0.0,84.2125504,2.287583078,423.469456
7039,B-4383,sulfotepp,"InChI=1S/C8H20O5P2S2/c1-5-9-14(16,10-6-2)13-15(17,11-7-3)12-8-4/h5-8H2,1-4H3",XIUROWKZWPIAIB-UHFFFAOYSA-N,CCO[P](=S)(OCC)O[P](=S)(OCC)OCC,-4.0312,0.0,1.0,G1,322.325,3.598,76.159,17.0,7.0,0.0,9.0,10.0,104.0,0.0,0.0,0.0,0.0,46.15,113.6214282,4.786871873,251.6401255
9885,H-238,"2,2',3,4,4',5'-Hexachlorobiphenyl  ",InChI=1S/C12H4Cl6/c13-5-1-2-6(8(14)3-5)7-4-9(15)11(17)12(18)10(7)16/h1-4H,CKLLRBPBZLTGDJ-UHFFFAOYSA-N,ClC1=CC=C(C2=CC(Cl)=C(Cl)C(Cl)=C2Cl)C(Cl)=C1,-8.32,0.4923339,3.0,G5,360.882,7.274,81.938,18.0,0.0,0.0,6.0,1.0,94.0,2.0,0.0,0.0,2.0,0.0,134.3080947,2.716545973,620.4500799
5163,B-1994,"tyrosine, 3,5-dichloro-","InChI=1S/C9H9Cl2NO3/c10-5-1-4(2-6(11)8(5)13)3-7(12)9(14)15/h1-2,7,13H,3,12H2,(H,14,15)/t7-/m0/s1",MPHURJQUHZHALJ-ZETCQYMHSA-N,N[C@@H](Cc1cc(Cl)c(O)c(Cl)c1)C(O)=O,-0.796,0.0,1.0,G1,250.081,1.6534,57.442,15.0,3.0,3.0,6.0,3.0,82.0,1.0,0.0,0.0,1.0,83.55,96.22264222,2.923727031,371.9390011
3251,A-5356,ethyl(propyl)amine,"InChI=1S/C5H13N/c1-3-5-6-4-2/h6H,3-5H2,1-2H3/p+1",XCVNDBIXFPGMIW-UHFFFAOYSA-O,CCC[NH2+]CC,1.054659457,0.0,1.0,G1,88.174,-0.0203,27.6244,6.0,0.0,1.0,1.0,3.0,38.0,0.0,0.0,0.0,0.0,16.61,39.74888167,2.339092315,15.90013453
5179,B-2011,"2-cf3-4,5-dichlorobenzimidazole","InChI=1S/C8H3Cl2F3N2/c9-3-1-2-4-6(5(3)10)15-7(14-4)8(11,12)13/h1-2H,(H,14,15)",KSROTSBULDYPKA-UHFFFAOYSA-N,FC(F)(F)c1[nH]c2ccc(Cl)c(Cl)c2n1,-3.5677,0.0,1.0,G1,255.026,3.8885,51.1157,15.0,1.0,1.0,7.0,0.0,80.0,2.0,0.0,0.0,2.0,28.68,92.00995683,2.716164445,518.3165183
4121,B-753,demeton-s,"InChI=1S/C8H19O3PS2/c1-4-10-12(9,11-5-2)14-8-7-13-6-3/h4-8H2,1-3H3",GRPRVIYRYGLIJU-UHFFFAOYSA-N,CCO[P](=O)(OCC)SCCSCC,-2.1112,0.0,1.0,G1,258.345,3.6538,66.3155,14.0,5.0,0.0,6.0,9.0,86.0,0.0,0.0,0.0,0.0,35.53,94.97868138,3.776797253,167.9693269
8282,C-2287,1-methyl-4-sulfapyrimidin-2-one,"InChI=1S/C11H12N4O3S/c1-15-7-6-10(13-11(15)16)14-19(17,18)9-4-2-8(12)3-5-9/h2-7H,12H2,1H3,(H,13,14,16)",QOPHKHWJLOYIDO-UHFFFAOYSA-N,CN1C=CC(=NC1=O)N[S](=O)(=O)C2=CC=C(N)C=C2,-2.36,0.0,1.0,G1,280.309,0.1633,71.1409,19.0,6.0,2.0,8.0,3.0,100.0,2.0,0.0,0.0,2.0,107.08,109.3147578,2.330884427,750.2549201
7611,C-1134,4-ethylbenzoic  acid,"InChI=1S/C9H10O2/c1-2-7-3-5-8(6-4-7)9(10)11/h3-6H,2H2,1H3,(H,10,11)",ZQVKTHRQIXSMGY-UHFFFAOYSA-N,CCC1=CC=C(C=C1)C(O)=O,-2.52,0.0,1.0,G1,150.177,1.9472,42.7793,11.0,1.0,1.0,2.0,2.0,58.0,1.0,0.0,0.0,1.0,37.3,65.48198531,2.913801563,248.7701726
6806,B-4048,di(n-propyl) ether,"InChI=1S/C6H14O/c1-3-5-7-6-4-2/h3-6H2,1-2H3",POLCUAVZOMRGSN-UHFFFAOYSA-N,CCCOCCC,-1.3192,0.1504,2.0,G3,102.177,1.823,31.401,7.0,1.0,0.0,1.0,4.0,44.0,0.0,0.0,0.0,0.0,9.23,45.67750683,2.447472888,23.3609904
5041,B-1864,1-chloro-3-isothiocyanato-benzene,InChI=1S/C7H4ClNS/c8-6-2-1-3-7(4-6)9-5-10/h1-4H,WGXCKFMVBAOIFH-UHFFFAOYSA-N,Clc1cccc(c1)N=C=S,-3.9507,0.0,1.0,G1,169.636,3.0743,46.138,10.0,2.0,0.0,3.0,1.0,50.0,1.0,0.0,0.0,1.0,12.36,69.35371419,3.061972169,278.6895253
8691,E-27,1-hexyne,"InChI=1S/C6H10/c1-3-5-6-4-2/h1H,4-6H2,2H3",CGHIBGNXEGJPQZ-UHFFFAOYSA-N,CCCCC#C,-2.36,0.0,1.0,G1,82.146,1.8098,28.358,6.0,0.0,0.0,0.0,2.0,34.0,0.0,0.0,0.0,0.0,0.0,39.56318699,2.543857644,47.54887502
5256,B-2095,n-phenylphthalamic acid,"InChI=1S/C14H11NO3/c16-13(15-10-6-2-1-3-7-10)11-8-4-5-9-12(11)14(17)18/h1-9H,(H,15,16)(H,17,18)",DSUPUOGOCIFZBG-UHFFFAOYSA-N,OC(=O)c1ccccc1C(=O)Nc2ccccc2,-4.0814,0.0,1.0,G1,241.246,2.6371,67.7965,18.0,2.0,2.0,4.0,3.0,90.0,2.0,0.0,0.0,2.0,66.4,103.8855217,2.270832264,578.6027924
5646,B-2538,"ethanesulfinothioic acid, s-ethyl ester","InChI=1S/C4H10OS2/c1-3-6-7(5)4-2/h3-4H2,1-2H3",FIWQKOIUXFENIV-UHFFFAOYSA-N,CCS[S](=O)CC,-0.0993,0.0,1.0,G1,138.257,1.4231,36.8154,7.0,2.0,0.0,3.0,3.0,44.0,0.0,0.0,0.0,0.0,17.07,50.73140369,3.002590529,62.71013448
5445,B-2309,"1,2-anthracenedicarboxylic acid, 9,10-dihydro-9,","InChI=1S/C16H8O6/c17-13-7-3-1-2-4-8(7)14(18)11-9(13)5-6-10(15(19)20)12(11)16(21)22/h1-6H,(H,19,20)(H,21,22)",QQPQYWGNVMIGAF-UHFFFAOYSA-N,OC(=O)c1ccc2C(=O)c3ccccc3C(=O)c2c1C(O)=O,-2.8141,0.0,1.0,G1,296.234,1.8584,73.6676,22.0,4.0,2.0,6.0,2.0,108.0,2.0,0.0,1.0,3.0,108.74,123.1769905,2.406944429,878.199924
8794,E-700,diphenamid,"InChI=1S/C16H17NO/c1-17(2)16(18)15(13-9-5-3-6-10-13)14-11-7-4-8-12-14/h3-12,15H,1-2H3",QAHFOPIILNICLA-UHFFFAOYSA-N,CN(C)C(=O)C(c1ccccc1)c2ccccc2,-2.98,0.014727148,3.0,G5,239.318,2.9067,73.421,18.0,1.0,0.0,2.0,3.0,92.0,2.0,0.0,0.0,2.0,20.31,107.8696216,2.452110932,465.6348741
9926,H-525,Aldicarb,"InChI=1S/C7H14N2O2S/c1-7(2,12-4)5-9-11-6(10)8-3/h5H,1-4H3,(H,8,10)",QGLZXHRNAYXIBU-UHFFFAOYSA-N,CNC(=O)ON=CC(C)(C)SC,-0.71,0.0,1.0,G1,190.268,1.4698,51.6267,12.0,4.0,1.0,5.0,3.0,70.0,0.0,0.0,0.0,0.0,50.69,76.72630424,3.831747294,180.2451893
3978,B-521,glyoxal,InChI=1S/C2H2O2/c3-1-2-4/h1-2H,LEQAOMBKQFMDFZ-UHFFFAOYSA-N,O=CC=O,1.2363,0.0,1.0,G1,58.036,-0.6158,12.128,4.0,2.0,0.0,2.0,1.0,22.0,0.0,0.0,0.0,0.0,34.14,23.42723734,2.732050808,25.01955001
237,A-398,tributyl[(tributylstannyl)oxy]stannane,"InChI=1S/6C4H9.O.2Sn/c6*1-3-4-2;;;/h6*1,3-4H2,2H3;;;",APQHKWPGGHMYKJ-UHFFFAOYSA-N,CCCC[Sn](CCCC)(CCCC)O[Sn](CCCC)(CCCC)CCCC,-3.922851514,0.0,1.0,G1,596.117,9.6946,130.883,27.0,1.0,0.0,3.0,20.0,164.0,0.0,0.0,0.0,0.0,9.23,182.5799434,5.663274909,245.9541588
8011,C-1883,"4,6-pteridinedione","InChI=1S/C6H4N4O2/c11-3-1-7-5-4(10-3)6(12)9-2-8-5/h1-2H,(H,10,11)(H,7,8,9,12)",BJZIBODCUPQTSW-UHFFFAOYSA-N,O=C1NC2=C(N=CNC2=O)N=C1,-2.96,0.0,1.0,G1,164.124,-0.9936,40.7794,12.0,4.0,2.0,6.0,0.0,60.0,2.0,0.0,0.0,2.0,91.5,65.31470378,3.075028659,526.5493905
8694,E-43,p-isopropyltoluene,"InChI=1S/C10H14/c1-8(2)10-6-4-9(3)5-7-10/h4-8H,1-3H3",HFPZCAJZSCWRBC-UHFFFAOYSA-N,c1cc(C)ccc1C(C)C,-3.77,0.0057,2.0,G3,134.222,3.11842,45.268,10.0,0.0,0.0,0.0,1.0,54.0,1.0,0.0,0.0,1.0,0.0,62.89117158,2.893762784,193.7832245
7214,C-65,l-glutamine,"InChI=1S/C5H10N2O3/c6-3(5(9)10)1-2-4(7)8/h3H,1-2,6H2,(H2,7,8)(H,9,10)",ZDXPYRJPNDTMRX-UHFFFAOYSA-N,NC(CCC(N)=O)C(O)=O,-0.54,0.005,2.0,G3,146.146,-1.3362,34.0396,10.0,3.0,3.0,5.0,4.0,58.0,0.0,0.0,0.0,0.0,106.41,57.99607883,3.49072966,145.8284896
442,A-773,1-benzoylcyclohexan-1-ol,"InChI=1S/C13H16O2/c14-12(11-7-3-1-4-8-11)13(15)9-5-2-6-10-13/h1,3-4,7-8,15H,2,5-6,9-10H2",QNODIIQQMGDSEF-UHFFFAOYSA-N,OC1(CCCCC1)C(=O)c2ccccc2,-2.664780194,0.0,1.0,G1,204.269,2.5645,58.8073,15.0,2.0,1.0,2.0,2.0,80.0,1.0,1.0,1.0,2.0,37.3,89.93592262,2.197389224,336.8134025
8435,C-2510,2-isopropylphenyl  2'-nitro-4'-[(4''-acetylpiperazin-1''-yl)acryloyl]phenyl  sulfide,"InChI=1S/C24H27N3O4S/c1-17(2)20-6-4-5-7-22(20)32-23-10-8-19(16-21(23)27(30)31)9-11-24(29)26-14-12-25(13-15-26)18(3)28/h4-11,16-17H,12-15H2,1-3H3/b11-9+",HTGGAYLWTDOFDK-PKNBQFBNSA-N,CC(C)C1=C(SC2=C(C=C(\C=C\C(=O)N3CCN(CC3)C(C)=O)C=C2)[N+]([O-])=O)C=CC=C1,-2.7,0.0,1.0,G1,453.564,4.5733,125.6184,32.0,5.0,0.0,8.0,6.0,168.0,2.0,1.0,1.0,3.0,83.76,191.7911658,1.743485819,1043.289886
2348,A-3909,1-[4-(4-hydroxyphenyl)piperazin-1-yl]ethan-1-one,"InChI=1S/C12H16N2O2/c1-10(15)13-6-8-14(9-7-13)11-2-4-12(16)5-3-11/h2-5,16H,6-9H2,1H3",AGVNLFCRZULMKK-UHFFFAOYSA-N,CC(=O)N1CCN(CC1)c2ccc(O)cc2,-1.817914488,0.0,1.0,G1,220.272,1.0607,62.5738,16.0,3.0,1.0,4.0,1.0,86.0,1.0,1.0,1.0,2.0,43.78,95.09064784,1.985750187,367.1100797
8479,C-2559,n4-[2-(benzylsulfonamido)pyrimidin-4-yl)sulfanilamide; 4-[2-(benzylsulfonylamino)pyrimidin-4-ylamino]benzenesulfonamide,"InChI=1S/C17H17N5O4S2/c18-28(25,26)15-8-6-14(7-9-15)20-16-10-11-19-17(21-16)22-27(23,24)12-13-4-2-1-3-5-13/h1-11H,12H2,(H2,18,25,26)(H2,19,20,21,22)",QFSKYCBYJWHTPZ-UHFFFAOYSA-N,N[S](=O)(=O)C1=CC=C(NC2=CC=NC(=N2)N[S](=O)(=O)CC3=CC=CC=C3)C=C1,-2.7,0.0,1.0,G1,419.488,1.8095,105.8184,28.0,7.0,3.0,11.0,7.0,146.0,3.0,0.0,0.0,3.0,144.14,162.3109965,1.715543861,1165.684321
5168,B-1999,"2-furancarboxylic acid, 4-bromo-","InChI=1S/C5H3BrO3/c6-3-1-4(5(7)8)9-2-3/h1-2H,(H,7,8)",QALYBHRYGIXHOF-UHFFFAOYSA-N,OC(=O)c1occ(Br)c1,-1.1841,0.0,1.0,G1,190.98,1.7403,33.3673,9.0,2.0,1.0,4.0,1.0,48.0,1.0,0.0,0.0,1.0,50.44,59.41397796,2.977648532,227.8619086
1042,A-1798,"2-(cyclohexylsulfanyl)-2,3-dihydro-1H-isoindole-1,3-dione","InChI=1S/C14H15NO2S/c16-13-11-8-4-5-9-12(11)14(17)15(13)18-10-6-2-1-3-7-10/h4-5,8-10H,1-3,6-7H2",UEZWYKZHXASYJN-UHFFFAOYSA-N,O=C1N(SC2CCCCC2)C(=O)c3ccccc13,-4.323794172,0.0,1.0,G1,261.346,3.2635,71.406,18.0,3.0,0.0,4.0,2.0,94.0,1.0,1.0,2.0,3.0,37.38,110.6806431,1.78867503,459.3222882
9647,F-1106,4-(4-dimethylaminophenyl)diazenylbenzenesulfonic acid,"InChI=1S/C14H15N3O3S/c1-17(2)13-7-3-11(4-8-13)15-16-12-5-9-14(10-6-12)21(18,19)20/h3-10H,1-2H3,(H,18,19,20)",IETWCRRCPURZOC-UHFFFAOYSA-N,CN(C)C1=CC=C(N=NC2=CC=C(S(=O)(=O)O)C=C2)C=C1,-3.86,0.0,1.0,G1,305.359,3.4147,81.2016,21.0,5.0,1.0,7.0,4.0,110.0,2.0,0.0,0.0,2.0,82.33,123.0536291,2.137236664,736.0386296
3768,B-191,"1,1,1-trifluoro-2-chloroethane","InChI=1S/C2H2ClF3/c3-1-2(4,5)6/h1H2",CYXIKYKBLDZZNW-UHFFFAOYSA-N,FC(F)(F)CCl,-1.1098,0.0,1.0,G1,118.485,1.7875,16.775,6.0,0.0,0.0,4.0,0.0,38.0,0.0,0.0,0.0,0.0,0.0,37.90406558,3.168489873,38.54808141
5148,B-1976,"2,4,6-cycloheptatrien-1-one, 5-bromo-2-hydroxy-","InChI=1S/C7H5BrO2/c8-5-1-3-6(9)7(10)4-2-5/h1-4H,(H,9,10)",DAHLUZDNJJOKGS-UHFFFAOYSA-N,OC1=CC=C(Br)C=CC1=O,-3.5629,0.0,1.0,G1,201.019,1.5149,42.0768,10.0,2.0,1.0,3.0,0.0,52.0,1.0,0.0,0.0,1.0,37.3,66.26519414,3.42534559,295.8007592
9615,F-1071,"1,3-bis(4-ethoxyphenyl)urea","InChI=1S/C17H20N2O3/c1-3-21-15-9-5-13(6-10-15)18-17(20)19-14-7-11-16(12-8-14)22-4-2/h5-12H,3-4H2,1-2H3,(H2,18,19,20)",PQWHYODXTBJHQG-UHFFFAOYSA-N,CCOC1=CC=C(NC(=O)NC2=CC=C(OCC)C=C2)C=C1,-4.44,0.0,1.0,G1,300.358,4.128,87.8634,22.0,3.0,2.0,5.0,6.0,116.0,2.0,0.0,0.0,2.0,59.59,129.8015448,1.886674099,540.8060447
1500,A-2566,"O,O,O-tris(4-nitrophenyl) thiophosphate","InChI=1S/C18H12N3O9PS/c22-19(23)13-1-7-16(8-2-13)28-31(32,29-17-9-3-14(4-10-17)20(24)25)30-18-11-5-15(6-12-18)21(26)27/h1-12H",DMRUHNJUTAJPSU-UHFFFAOYSA-N,[O-][N+](=O)c1ccc(O[P](=S)(Oc2ccc(cc2)[N+]([O-])=O)Oc3ccc(cc3)[N+]([O-])=O)cc1,-5.678834198,0.0,1.0,G1,477.347,5.1725,115.4582,32.0,10.0,0.0,14.0,9.0,164.0,3.0,0.0,0.0,3.0,157.11,184.2250825,1.889607672,1050.907242
8812,E-769,Urocanic_Acid,"InChI=1S/C6H6N2O2/c9-6(10)2-1-5-3-7-4-8-5/h1-4H,(H,7,8)(H,9,10)",LOIYMIARKYCTBW-UHFFFAOYSA-N,O=C(O)C=CC(N=CN1)=C1,-1.96,0.0,1.0,G1,138.126,0.5075,35.2575,10.0,2.0,2.0,4.0,2.0,52.0,1.0,0.0,0.0,1.0,65.98,57.22119068,2.637337779,238.2603118