,ID,Name,InChI,InChIKey,SMILES,Solubility,SD,Ocurrences,Group,MolWt,MolLogP,MolMR,HeavyAtomCount,NumHAcceptors,NumHDonors,NumHeteroatoms,NumRotatableBonds,NumValenceElectrons,NumAromaticRings,NumSaturatedRings,NumAliphaticRings,RingCount,TPSA,LabuteASA,BalabanJ,BertzCT
4669,B-1423,n-pentadecane,"InChI=1S/C15H32/c1-3-5-7-9-11-13-15-14-12-10-8-6-4-2/h3-15H2,1-2H3",YCOZIPAWZNQLMR-UHFFFAOYSA-N,CCCCCCCCCCCCCCC,-9.4464,0.0,1.0,G1,212.421,6.0975,71.369,15.0,0.0,0.0,0.0,12.0,92.0,0.0,0.0,0.0,0.0,0.0,97.84844063,2.807925739,84.21143267
4989,B-1806,"benzoic acid, 2-(4-bromobenzoyl)-","InChI=1S/C14H9BrO3/c15-10-7-5-9(6-8-10)13(16)11-3-1-2-4-12(11)14(17)18/h1-8H,(H,17,18)",NONNFIAFWRSPPY-UHFFFAOYSA-N,OC(=O)c1ccccc1C(=O)c2ccc(Br)cc2,-3.0074,0.0,1.0,G1,305.127,3.3783,70.9758,18.0,2.0,1.0,4.0,3.0,90.0,2.0,0.0,0.0,2.0,54.37,112.2032071,2.459795907,602.6910985
7424,C-718,"2,2',4,5'-tetrachlorobiphenyl",InChI=1S/C12H6Cl4/c13-7-2-4-11(15)10(5-7)9-3-1-8(14)6-12(9)16/h1-6H,ZWPVHELAQPIZHO-UHFFFAOYSA-N,ClC1=CC(=C(C=C1)C2=CC(=CC=C2Cl)Cl)Cl,-7.26,0.34365,2.0,G3,291.992,5.9672,71.918,16.0,0.0,0.0,4.0,1.0,82.0,2.0,0.0,0.0,2.0,0.0,113.7015622,2.623188385,534.5371241
674,A-1170,3-ethoxy-4-hydroxybenzaldehyde,"InChI=1S/C9H10O3/c1-2-12-9-5-7(6-10)3-4-8(9)11/h3-6,11H,2H2,1H3",CBOQJANXLMLOSS-UHFFFAOYSA-N,CCOc1cc(C=O)ccc1O,-1.764202268,0.0,1.0,G1,166.176,1.6034,44.6633,12.0,3.0,1.0,3.0,3.0,64.0,1.0,0.0,0.0,1.0,46.53,70.59553054,2.988070081,281.1021788
9820,G-867,nifedipine,"InChI=1S/C17H18N2O6/c1-9-13(16(20)24-3)15(14(10(2)18-9)17(21)25-4)11-7-5-6-8-12(11)19(22)23/h5-8,15,18H,1-4H3",HYIMSNHJOBLJNT-UHFFFAOYSA-N,COC(=O)C1=C(C)NC(=C(C1c2ccccc2N(=O)=O)C(=O)OC)C ,-4.76,0.114309521,3.0,G5,346.339,2.1756,88.4051,25.0,7.0,1.0,8.0,4.0,132.0,1.0,0.0,1.0,2.0,107.77,143.8137017,2.803490088,771.1110284
5821,B-2738,benzo(a)fluorene,"InChI=1S/C17H12/c1-3-7-14-12(5-1)9-10-16-15-8-4-2-6-13(15)11-17(14)16/h1-10H,11H2",HKMTVMBEALTRRR-UHFFFAOYSA-N,C1c2ccccc2c3ccc4ccccc4c13,-6.678,0.0,1.0,G1,216.283,4.411,72.19,17.0,0.0,0.0,0.0,0.0,80.0,3.0,0.0,1.0,4.0,0.0,100.5292728,2.108386555,722.9398741
8606,D-1575,"1,3-propanediol, 2-(hydroxymethyl)-2-nitro-","InChI=1S/C4H9NO5/c6-1-4(2-7,3-8)5(9)10/h6-8H,1-3H2",OLQJQHSAWMFDJE-UHFFFAOYSA-N,OCC(CO)(CO)[N+]([O-])=O,0.821,0.17105,2.0,G3,151.118,-2.0212,30.9828,10.0,5.0,3.0,6.0,4.0,60.0,0.0,0.0,0.0,0.0,103.83,56.86975435,4.305619426,112.5516958
6427,B-3411,"acetamide, 2-(benzoyloxy)-n,n-dipropyl-","InChI=1S/C15H21NO3/c1-3-10-16(11-4-2)14(17)12-19-15(18)13-8-6-5-7-9-13/h5-9H,3-4,10-12H2,1-2H3",COTRONQEHWUCRV-UHFFFAOYSA-N,CCCN(CCC)C(=O)COC(=O)c1ccccc1,-2.3791,0.0,1.0,G1,263.337,2.492,73.8865,19.0,3.0,0.0,4.0,7.0,104.0,1.0,0.0,0.0,1.0,46.61,113.9123052,2.463454823,397.1115306
5003,B-1824,"naphthalene, 1-methoxy-","InChI=1S/C11H10O/c1-12-11-8-4-6-9-5-2-3-7-10(9)11/h2-8H,1H3",NQMUGNMMFTYOHK-UHFFFAOYSA-N,COc1cccc2ccccc12,-4.1992,0.0,1.0,G1,158.2,2.8484,50.5,12.0,1.0,0.0,1.0,1.0,60.0,2.0,0.0,0.0,2.0,9.23,71.591555,2.79096703,387.631175
5956,B-2889,tricyclazole,"InChI=1S/C9H7N3S/c1-6-3-2-4-7-8(6)12-5-10-11-9(12)13-7/h2-5H,1H3",DQJCHOQLCLEDLL-UHFFFAOYSA-N,Cc1cccc2sc3nncn3c12,-2.0729,0.0,1.0,G1,189.243,2.25242,53.107,13.0,4.0,0.0,4.0,0.0,64.0,3.0,0.0,0.0,3.0,30.19,78.64428296,2.683285651,578.5955127
6127,B-3083,"5-pyrimidinemethanol, .alpha.-(2-chlorophenyl)-.","InChI=1S/C17H12ClFN2O/c18-16-4-2-1-3-15(16)17(22,13-9-20-11-21-10-13)12-5-7-14(19)8-6-12/h1-11,22H",SAPGTCDSBGMXCD-UHFFFAOYSA-N,OC(c1ccc(F)cc1)(c2cncnc2)c3ccccc3Cl,-4.083,0.0,1.0,G1,314.747,3.5533,81.9848,22.0,3.0,1.0,5.0,3.0,110.0,3.0,0.0,0.0,3.0,46.01,131.612865,2.274825247,780.1770801
8840,E-859,Tranid,"InChI=1S/C10H12ClN3O2/c1-13-10(15)16-14-9-7-3-5(8(9)11)2-6(7)4-12/h5-8H,2-3H2,1H3,(H,13,15)",QCQPGRMMDFIQMB-UHFFFAOYSA-N,CNC(=O)ON=C1C(C2)C(C#N)CC2C1Cl,-2.08,0.0,1.0,G1,241.678,1.48538,57.9337,16.0,4.0,1.0,6.0,1.0,86.0,0.0,2.0,2.0,2.0,74.48,98.38220416,2.100369986,376.7506566
4811,B-1598,dichlofluanid,"InChI=1S/C9H11Cl2FN2O2S2/c1-13(2)18(15,16)14(17-9(10,11)12)8-6-4-3-5-7-8/h3-7H,1-2H3",WURGXGVFSMYFCG-UHFFFAOYSA-N,CN(C)[S](=O)(=O)N(SC(F)(Cl)Cl)c1ccccc1,-5.4088,0.0,1.0,G1,333.237,3.006,74.6638,18.0,3.0,0.0,9.0,5.0,102.0,1.0,0.0,0.0,1.0,40.62,119.9726056,3.205352782,491.0391414
7872,C-1671,abietic  acid,"InChI=1S/C20H30O2/c1-13(2)14-6-8-16-15(12-14)7-9-17-19(16,3)10-5-11-20(17,4)18(21)22/h7,12-13,16-17H,5-6,8-11H2,1-4H3,(H,21,22)",RSWGJHLUYNHPMX-UHFFFAOYSA-N,CC(C)C1=CC2=CCC3C(C)(CCCC3(C)C(O)=O)C2CC1,-3.8,0.0,1.0,G1,302.458,5.2062,89.5358,22.0,1.0,1.0,2.0,2.0,122.0,0.0,1.0,3.0,3.0,37.3,134.2322075,1.99874724,541.9104984
980,A-1701,2-methyl-4-nitroaniline,"InChI=1S/C7H8N2O2/c1-5-4-6(9(10)11)2-3-7(5)8/h2-4H,8H2,1H3",XTTIQGSLJBWVIV-UHFFFAOYSA-N,Cc1cc(ccc1N)[N+]([O-])=O,-3.036152484,0.0,1.0,G1,152.153,1.48542,42.2458,11.0,3.0,1.0,4.0,1.0,58.0,1.0,0.0,0.0,1.0,69.16,63.78921165,3.151549668,296.4920898
4474,B-1192,"2-propanol, 1-chloro-2-methyl-","InChI=1S/C4H9ClO/c1-4(2,6)3-5/h6H,3H2,1-2H3",JNOZGFXJZQXOSU-UHFFFAOYSA-N,CC(C)(O)CCl,0.1602,0.0,1.0,G1,108.568,0.9961,27.0178,6.0,1.0,1.0,2.0,1.0,38.0,0.0,0.0,0.0,0.0,20.23,42.93157735,3.168489873,37.30296891
75,A-122,(2-phenoxyethoxy)benzene,"InChI=1S/C14H14O2/c1-3-7-13(8-4-1)15-11-12-16-14-9-5-2-6-10-14/h1-10H,11-12H2",XCSGHNKDXGYELG-UHFFFAOYSA-N,C(COc1ccccc1)Oc2ccccc2,-3.988526528,0.0,1.0,G1,214.264,3.1444,63.874,16.0,2.0,0.0,2.0,5.0,82.0,2.0,0.0,0.0,2.0,18.46,95.44547201,1.698217471,356.0952226
91,A-146,"(1R,2R,4R)-1,7,7-trimethylbicyclo[2.2.1]heptan-2-yl acetate (1S,2S,4S)-1,7,7-trimethylbicyclo[2.2.1]heptan-2-yl acetate","InChI=1S/C12H20O2/c1-8(13)14-10-7-9-5-6-12(10,4)11(9,2)3/h9-10H,5-7H2,1-4H3/t9-,10+,12-/m1/s1",KGEKLUUHTZCSIP-JFGNBEQYSA-N,CC(=O)O[C@H]1C[C@H]2CC[C@@]1(C)C2(C)C,-3.088778192,0.0,1.0,G1,196.29,2.7643,54.783,14.0,2.0,0.0,2.0,1.0,80.0,0.0,2.0,2.0,2.0,26.3,86.01701931,2.225540267,269.4952945
5213,B-2047,"butanedioic acid, chloro-, (r)-","InChI=1S/C4H5ClO4/c5-2(4(8)9)1-3(6)7/h2H,1H2,(H,6,7)(H,8,9)/t2-/m1/s1",QEGKXSHUKXMDRW-UWTATZPHSA-N,OC(=O)C[C@@H](Cl)C(O)=O,-0.7953,0.5,2.0,G3,152.533,0.1531,29.5296,9.0,2.0,2.0,5.0,3.0,52.0,0.0,0.0,0.0,0.0,74.6,56.0488553,3.632432152,132.529325
870,A-1501,4-[4-(propan-2-yloxy)benzenesulfonyl]phenol,"InChI=1S/C15H16O4S/c1-11(2)19-13-5-9-15(10-6-13)20(17,18)14-7-3-12(16)4-8-14/h3-11,16H,1-2H3",ZTILAOCGFRDHBH-UHFFFAOYSA-N,CC(C)Oc1ccc(cc1)[S](=O)(=O)c2ccc(O)cc2,-4.171445785,0.0,1.0,G1,292.356,3.0122,75.7646,20.0,4.0,1.0,5.0,4.0,106.0,2.0,0.0,0.0,2.0,63.6,118.116501,2.321761172,670.8183822
8720,E-241,2-ethyl-1-butanol,"InChI=1S/C6H14O/c1-3-6(4-2)5-7/h6-7H,3-5H2,1-2H3",TZYRSLHNPKPEFV-UHFFFAOYSA-N,OCC(CC)CC,-1.17,0.11865,2.0,G3,102.177,1.4149,31.1578,7.0,1.0,1.0,1.0,3.0,44.0,0.0,0.0,0.0,0.0,20.23,45.35819535,2.992302883,25.65148445
347,A-586,2-(butan-2-yl)cyclohexan-1-one,"InChI=1S/C10H18O/c1-3-8(2)9-6-4-5-7-10(9)11/h8-9H,3-7H2,1-2H3",RQXTZKGDMNIWJF-UHFFFAOYSA-N,CCC(C)C1CCCCC1=O,-2.427057806,0.0,1.0,G1,154.253,2.7918,46.42,11.0,1.0,0.0,1.0,2.0,64.0,0.0,1.0,1.0,1.0,17.07,69.179421,2.470035704,139.8082035
5657,B-2549,"benzenemethanol, 2-bromo-","InChI=1S/C7H7BrO/c8-7-4-2-1-3-6(7)5-9/h1-4,9H,5H2",IOWGHQGLUMEZKG-UHFFFAOYSA-N,OCc1ccccc1Br,-2.158,0.0,1.0,G1,187.036,1.9414,40.0648,9.0,1.0,1.0,2.0,1.0,48.0,1.0,0.0,0.0,1.0,20.23,62.45812659,3.006524007,197.8625685
7933,C-1768,4-hydroxyisophthalic  acid,"InChI=1S/C8H6O5/c9-6-2-1-4(7(10)11)3-5(6)8(12)13/h1-3,9H,(H,10,11)(H,12,13)",BCEQKAQCUWUNML-UHFFFAOYSA-N,OC(=O)C1=CC=C(O)C(=C1)C(O)=O,-1.78,0.50165,2.0,G2,182.131,0.7886,42.0254,13.0,3.0,3.0,5.0,2.0,68.0,1.0,0.0,0.0,1.0,94.83,72.8670328,3.267052212,368.7971776
9100,F-314,7-diethylamino-4-methylchromen-2-one,"InChI=1S/C14H17NO2/c1-4-15(5-2)11-6-7-12-10(3)8-14(16)17-13(12)9-11/h6-9H,4-5H2,1-3H3",AFYCEAFSNDLKSX-UHFFFAOYSA-N,CCN(CC)C1=CC2=C(C=C1)C(C)=CC(=O)O2,-4.0,0.0,1.0,G1,231.295,2.94762,70.782,17.0,3.0,0.0,3.0,3.0,90.0,2.0,0.0,0.0,2.0,33.45,100.6639508,2.607487279,582.2821706
3968,B-506,"decanedioic acid, dimethyl ester","InChI=1S/C12H22O4/c1-15-11(13)9-7-5-3-4-6-8-10-12(14)16-2/h3-10H2,1-2H3",ALOUNLDAKADEEB-UHFFFAOYSA-N,COC(=O)CCCCCCCCC(=O)OC,-3.2831,0.199682507,2.0,G3,230.304,2.4532,60.968,16.0,4.0,0.0,4.0,9.0,94.0,0.0,0.0,0.0,0.0,52.6,97.30374895,3.097608105,179.1954412
1867,A-3068,"2,6,10,15,19,23-hexamethyltetracosane","InChI=1S/C30H62/c1-25(2)15-11-19-29(7)23-13-21-27(5)17-9-10-18-28(6)22-14-24-30(8)20-12-16-26(3)4/h25-30H,9-24H2,1-8H3",PRAKJMSDJKAYCZ-UHFFFAOYSA-N,CC(C)CCCC(C)CCCC(C)CCCCC(C)CCCC(C)CCCC(C)C,-5.14904043,0.320378789,3.0,G5,422.826,11.0844,140.204,30.0,0.0,0.0,0.0,21.0,182.0,0.0,0.0,0.0,0.0,0.0,193.3225723,3.53656201,307.9474732
1933,A-3186,"2-butyl-2-ethylpropane-1,3-diol","InChI=1S/C9H20O2/c1-3-5-6-9(4-2,7-10)8-11/h10-11H,3-8H2,1-2H3",DSKYSDCYIODJPC-UHFFFAOYSA-N,CCCCC(CC)(CO)CO,-1.260334336,0.0,1.0,G1,160.257,1.5576,46.4206,11.0,2.0,2.0,2.0,6.0,68.0,0.0,0.0,0.0,0.0,40.46,69.24725545,3.835257158,79.2988603
5535,B-2412,sec-butylamine,"InChI=1S/C4H11N/c1-3-4(2)5/h4H,3,5H2,1-2H3",BHRZNVHARXXAHW-UHFFFAOYSA-N,CCC(C)N,0.1851,0.0,1.0,G1,73.139,0.7436,23.9404,5.0,1.0,1.0,1.0,1.0,32.0,0.0,0.0,0.0,0.0,26.02,33.17396807,2.539538861,17.60964047
3730,B-120,mebutamate,"InChI=1S/C10H20N2O4/c1-4-7(2)10(3,5-15-8(11)13)6-16-9(12)14/h7H,4-6H2,1-3H3,(H2,11,13)(H2,12,14)",LEROTMJVBFSIMP-UHFFFAOYSA-N,CCC(C)C(C)(COC(N)=O)COC(N)=O,-2.366,0.0,1.0,G1,232.28,1.2294,58.6328,16.0,4.0,2.0,6.0,6.0,94.0,0.0,0.0,0.0,0.0,104.64,95.25364611,4.466411108,237.2035844
7701,C-1330,o-acetylacyclovir,"InChI=1S/C10H13N5O4/c1-6(16)19-3-2-18-5-15-4-12-7-8(15)13-10(11)14-9(7)17/h4H,2-3,5H2,1H3,(H3,11,13,14,17)",DMHAXLGAKQREIL-UHFFFAOYSA-N,CC(=O)OCCOC[N]1C=NC2=C1N=C(N)NC2=O,-2.7,0.0,1.0,G1,267.245,-0.761,65.1461,19.0,8.0,2.0,9.0,5.0,102.0,2.0,0.0,0.0,2.0,125.12,106.9058794,2.013833496,646.8976973
7678,C-1284,2-biphenylcarboxylic  acid;  2-phenylbenzoic acid,"InChI=1S/C13H10O2/c14-13(15)12-9-5-4-8-11(12)10-6-2-1-3-7-10/h1-9H,(H,14,15)",ILYSAKHOYBPSPC-UHFFFAOYSA-N,OC(=O)C1=C(C=CC=C1)C2=CC=CC=C2,-2.73,0.0,1.0,G1,198.221,3.0518,58.8373,15.0,1.0,1.0,2.0,2.0,74.0,2.0,0.0,0.0,2.0,37.3,87.80919529,2.581318928,474.9044432
8985,F-108,"5,5-Bis[(E)-but-2-enyl]-1,3-diazinane-2,4,6-trione","InChI=1S/C12H16N2O3/c1-3-5-7-12(8-6-4-2)9(15)13-11(17)14-10(12)16/h3-6H,7-8H2,1-2H3,(H2,13,14,15,16,17)",OJXLDQJJHBLYOT-UHFFFAOYSA-N,CC=CCC1(CC=CC)C(=O)NC(=O)NC1=O,-2.2,0.0,1.0,G1,236.271,1.2712,62.9764,17.0,3.0,2.0,5.0,4.0,92.0,0.0,1.0,1.0,1.0,75.27,99.95286774,3.050113512,360.5549218
6007,B-2948,"2,2',3,3',4,4',6-heptachlorobiphenyl",InChI=1S/C12H3Cl7/c13-5-2-1-4(9(16)10(5)17)8-6(14)3-7(15)11(18)12(8)19/h1-3H,TZMHVHLTPWKZCI-UHFFFAOYSA-N,Clc1ccc(c(Cl)c1Cl)c2c(Cl)cc(Cl)c(Cl)c2Cl,-8.2605,0.292833001,3.0,G5,395.327,7.9274,86.948,19.0,0.0,0.0,7.0,1.0,100.0,2.0,0.0,0.0,2.0,0.0,144.6113609,2.802853604,663.8579667
9062,F-237,N-hexylsulfonylhexane-1-sulfonamide,"InChI=1S/C12H27NO4S2/c1-3-5-7-9-11-18(14,15)13-19(16,17)12-10-8-6-4-2/h13H,3-12H2,1-2H3",CKPIWBTXNLQELX-UHFFFAOYSA-N,CCCCCCS(=O)(=O)NS(=O)(=O)CCCCCC,-2.2,0.0,1.0,G1,313.485,2.3962,78.9933,19.0,4.0,1.0,7.0,12.0,116.0,0.0,0.0,0.0,0.0,80.31,117.8250283,4.087626468,375.0103371
6338,B-3316,"2(3h)-pteridinone, 3-methyl-","InChI=1S/C7H6N4O/c1-11-4-5-6(10-7(11)12)9-3-2-8-5/h2-4H,1H3",PSYNZCWBYCLDGC-UHFFFAOYSA-N,CN1C=C2N=CC=NC2=NC1=O,-0.9089,0.0,1.0,G1,162.152,-0.2765,42.574,12.0,5.0,0.0,5.0,0.0,60.0,2.0,0.0,0.0,2.0,60.67,67.72809528,2.93313269,476.0352248
5248,B-2086,"glycine, n-[(ethylthio)thioxomethyl]-","InChI=1S/C5H9NO2S2/c1-2-10-5(9)6-3-4(7)8/h2-3H2,1H3,(H,6,9)(H,7,8)",OEVJJBPEVKMYFQ-UHFFFAOYSA-N,CCSC(=S)NCC(O)=O,-1.0882,0.0,1.0,G1,179.266,0.6986,46.3685,10.0,3.0,2.0,5.0,3.0,58.0,0.0,0.0,0.0,0.0,49.33,69.18652779,3.303872548,137.6096405
4556,B-1287,"3-hydroxy-2,2-dimethylpropanal","InChI=1S/C5H10O2/c1-5(2,3-6)4-7/h3,7H,4H2,1-2H3",JJMOMMLADQPZNY-UHFFFAOYSA-N,CC(C)(CO)C=O,-0.3279,0.0,1.0,G1,102.133,0.2038,26.9308,7.0,2.0,1.0,2.0,2.0,42.0,0.0,0.0,0.0,0.0,37.3,43.15477534,3.57547115,66.48040588
4410,B-1113,c.i. disperse black 3,"InChI=1S/C14H16N4/c1-18(2)14-9-7-13(8-10-14)17-16-12-5-3-11(15)4-6-12/h3-10H,15H2,1-2H3",BVRIUXYMUSKBHG-UHFFFAOYSA-N,CN(C)c1ccc(cc1)N=Nc2ccc(N)cc2,-4.594,0.0,1.0,G1,240.31,3.7502,75.7994,18.0,4.0,1.0,4.0,3.0,92.0,2.0,0.0,0.0,2.0,53.98,106.7648838,2.109655163,526.7253791
8748,E-400,fructose,"InChI=1S/C6H12O6/c7-2-6(11)5(10)4(9)3(8)1-12-6/h3-5,7-11H,1-2H2",LKDRXBCSQODPBY-UHFFFAOYSA-N,O1CC(O)C(O)C(O)C1(O)CO,0.64,0.325,2.0,G3,180.156,-3.2198,36.008,12.0,6.0,5.0,6.0,1.0,72.0,0.0,1.0,1.0,1.0,110.38,68.64284444,2.705837489,162.1173001
9162,F-417,"2,3-DIMETHOXYBENZOIC ACID","InChI=1S/C9H10O4/c1-12-7-5-3-4-6(9(10)11)8(7)13-2/h3-5H,1-2H3,(H,10,11)",FODBVCSYJKNBLO-UHFFFAOYSA-N,COC1=CC=CC(C(=O)O)=C1OC,-2.14,0.0,1.0,G1,182.175,1.402,46.5053,13.0,3.0,1.0,4.0,3.0,70.0,1.0,0.0,0.0,1.0,55.76,75.70907577,3.266367172,319.3907823
4488,B-1207,3-methylpentan-2-one,"InChI=1S/C6H12O/c1-4-5(2)6(3)7/h5H,4H2,1-3H3",UIHCLUNTQKBZGK-UHFFFAOYSA-N,CCC(C)C(C)=O,-0.6805,0.00525,2.0,G3,100.161,1.6215,30.136,7.0,1.0,0.0,1.0,2.0,42.0,0.0,0.0,0.0,0.0,17.07,44.7254837,3.343417059,66.58027135
9613,F-1069,2-(6-Methoxy-2-naphthyl)propionic acid (e)-3-hexenyl ester,"InChI=1S/C20H24O3/c1-4-5-6-7-12-23-20(21)15(2)16-8-9-18-14-19(22-3)11-10-17(18)13-16/h5-6,8-11,13-15H,4,7,12H2,1-3H3",YECGACAHXOPLOS-UHFFFAOYSA-N,CCC=CCCOC(=O)C(C)C1=CC=C2C=C(OC)C=CC2=C1,-7.36,0.0,1.0,G1,312.409,4.8514,93.922,23.0,3.0,0.0,3.0,7.0,122.0,2.0,0.0,0.0,2.0,35.53,137.4614983,2.033571515,688.3463063
6367,B-3346,tebupirimfos,"InChI=1S/C13H23N2O3PS/c1-7-16-19(20,17-10(2)3)18-11-8-14-12(15-9-11)13(4,5)6/h8-10H,7H2,1-6H3",AWYOMXWDGWUJHS-UHFFFAOYSA-N,CCO[P](=S)(OC(C)C)Oc1cnc(nc1)C(C)(C)C,-4.7626,0.0,1.0,G1,318.379,3.8389,83.492,20.0,6.0,0.0,7.0,6.0,114.0,1.0,0.0,0.0,1.0,53.47,125.8757419,2.868246661,471.499767
923,A-1599,"5-[(5-sulfanylidene-4,5-dihydro-1,3,4-thiadiazol-2-yl)disulfanyl]-2,3-dihydro-1,3,4-thiadiazole-2-thione","InChI=1S/C4H2N4S6/c9-1-5-7-3(11-1)13-14-4-8-6-2(10)12-4/h(H,5,9)(H,6,10)",DJCISYVIXPWVHY-UHFFFAOYSA-N,S=C1NN=C(SSC2=NNC(=S)S2)S1,-3.252213315,0.0,1.0,G1,298.49,3.51418,66.3114,14.0,8.0,2.0,10.0,3.0,74.0,2.0,0.0,0.0,2.0,57.36,104.9484656,2.00900367,469.6690511
3664,B-9,thalidomide,"InChI=1S/C13H10N2O4/c16-10-6-5-9(11(17)14-10)15-12(18)7-3-1-2-4-8(7)13(15)19/h1-4,9H,5-6H2,(H,14,16,17)",UEJJHQNACJXSKW-UHFFFAOYSA-N,O=C1CCC(N2C(=O)c3ccccc3C2=O)C(=O)N1,-2.6758,0.5121,2.0,G2,258.233,0.0878,63.1137,19.0,4.0,1.0,6.0,1.0,96.0,1.0,1.0,2.0,3.0,83.55,107.9301199,1.960977799,587.8241613
4076,B-687,"1,3-dichloro-5,5-dimethylhydantoin",InChI=1S/C5H6Cl2N2O2/c1-5(2)3(10)8(6)4(11)9(5)7/h1-2H3,KEQGZUUPPQEDPF-UHFFFAOYSA-N,CC1(C)N(Cl)C(=O)N(Cl)C1=O,-2.5955,0.0,1.0,G1,197.021,1.3368,39.866,11.0,2.0,0.0,6.0,0.0,62.0,0.0,1.0,1.0,1.0,40.62,73.86577399,3.057854544,228.5223074
7125,B-4529,2-nitroresorcinol,"InChI=1S/C6H5NO4/c8-4-2-1-3-5(9)6(4)7(10)11/h1-3,8-9H",ZLCPKMIJYMHZMJ-UHFFFAOYSA-N,Oc1cccc(O)c1[N+]([O-])=O,-2.0734,0.0,1.0,G1,155.109,1.006,36.426,11.0,4.0,2.0,5.0,1.0,58.0,1.0,0.0,0.0,1.0,83.6,61.67284635,3.318913173,276.3837992
590,A-1041,2-aminobenzenesulfonic acid,"InChI=1S/C6H7NO3S/c7-5-3-1-2-4-6(5)11(8,9)10/h1-4H,7H2,(H,8,9,10)",ZMCHBSMFKQYNKA-UHFFFAOYSA-N,Nc1ccccc1[S](O)(=O)=O,-1.747168641,0.0,1.0,G1,173.193,0.5155,40.669,11.0,3.0,2.0,5.0,1.0,60.0,1.0,0.0,0.0,1.0,80.39,64.39992983,3.372194811,357.8450745
8773,E-602,1-nitropropane,"InChI=1S/C3H7NO2/c1-2-3-4(5)6/h2-3H2,1H3",JSZOAYXJRCEYSX-UHFFFAOYSA-N,CCCN(=O)=O,-0.8,0.01315,2.0,G3,89.094,0.6731,22.1524,6.0,2.0,0.0,3.0,2.0,36.0,0.0,0.0,0.0,0.0,43.14,36.12211098,2.83125711,52.7548875
7276,C-239,5-aminosalicylic  acid;  mesalamine;  mesalazine,"InChI=1S/C7H7NO3/c8-4-1-2-6(9)5(3-4)7(10)11/h1-3,9H,8H2,(H,10,11)",KBOPZPXVLCULAV-UHFFFAOYSA-N,NC1=CC(=C(O)C=C1)C(O)=O,-2.26,0.0,1.0,G1,153.137,0.6726,39.4785,11.0,3.0,3.0,4.0,1.0,58.0,1.0,0.0,0.0,1.0,83.55,62.88622554,3.23220887,295.7372023
5076,B-1902,"1,3-dioxolane, 2-ethyl-","InChI=1S/C5H10O2/c1-2-5-6-3-4-7-5/h5H,2-4H2,1H3",WEBRDDDJKLAXTO-UHFFFAOYSA-N,CCC1OCCO1,0.2919,0.0,1.0,G1,102.133,0.7693,25.983,7.0,2.0,0.0,2.0,1.0,42.0,0.0,1.0,1.0,1.0,18.46,43.42027879,2.139963319,48.04184398
277,A-468,"2,4-dimethyl-4-phenyltetrahydrofuran","InChI=1S/C12H16O/c1-10-8-12(2,9-13-10)11-6-4-3-5-7-11/h3-7,10H,8-9H2,1-2H3",GPMLJOOQCIHFET-UHFFFAOYSA-N,CC1CC(C)(CO1)c2ccccc2,-2.433237945,0.0,1.0,G1,176.259,2.7531,53.825,13.0,1.0,0.0,1.0,1.0,70.0,1.0,1.0,1.0,2.0,9.23,79.72876988,2.257639822,280.4357678
581,A-1027,5-amino-2-[(E)-2-(4-amino-2-sulfophenyl)ethenyl]benzene-1-sulfonic acid,"InChI=1S/C14H14N2O6S2/c15-11-5-3-9(13(7-11)23(17,18)19)1-2-10-4-6-12(16)8-14(10)24(20,21)22/h1-8H,15-16H2,(H,17,18,19)(H,20,21,22)/b2-1+",REJHVSOVQBJEBF-OWOJBTEDSA-N,Nc1ccc(\C=C\c2ccc(N)cc2[S](O)(=O)=O)c(c1)[S](O)(=O)=O,-4.06353038,0.634592497,3.0,G4,370.408,1.5148,90.266,24.0,6.0,4.0,10.0,4.0,128.0,2.0,0.0,0.0,2.0,160.78,138.4658319,2.58677351,943.7253495
5681,B-2577,diethyl pentyl phosphate,"InChI=1S/C9H21O4P/c1-4-7-8-9-13-14(10,11-5-2)12-6-3/h4-9H2,1-3H3",ITJPTURSPJESQC-UHFFFAOYSA-N,CCCCCO[P](=O)(OCC)OCC,-1.4757,0.0,1.0,G1,224.237,3.3743,56.3355,14.0,4.0,0.0,5.0,9.0,86.0,0.0,0.0,0.0,0.0,44.76,86.54903431,3.776797253,162.1948894
7566,C-1018,acronine;  acromycine;  acronycine,"InChI=1S/C20H19NO3/c1-20(2)10-9-13-15(24-20)11-16(23-4)17-18(13)21(3)14-8-6-5-7-12(14)19(17)22/h5-11H,1-4H3",SMPZPKRDRQOOHT-UHFFFAOYSA-N,COC1=C2C(=O)C3=C(C=CC=C3)N(C)C2=C4C=CC(C)(C)OC4=C1,-5.21,0.0,1.0,G1,321.376,3.8845,96.988,24.0,4.0,0.0,4.0,1.0,122.0,3.0,0.0,1.0,4.0,40.46,139.4721248,2.262222364,1073.857208
9587,F-1013,"8-(4-hydroxybutyl)-4H-thieno[3,2-c][1]benzoxepin-10-one","InChI=1S/C16H16O3S/c17-7-2-1-3-11-4-5-14-13(9-11)15(18)16-12(10-19-14)6-8-20-16/h4-6,8-9,17H,1-3,7,10H2",IPHKVWAKDXKJRE-UHFFFAOYSA-N,O=C1C2=C(C=CC(CCCCO)=C2)OCC2=C1SC=C2,-3.92,0.0,1.0,G1,288.368,3.1865,78.5493,20.0,4.0,1.0,4.0,4.0,104.0,2.0,0.0,1.0,3.0,46.53,121.3819832,1.90570159,630.4022644
8646,D-1816,"pentane, 2-chloro-","InChI=1S/C5H11Cl/c1-3-4-5(2)6/h5H,3-4H2,1-2H3",NFRKUDYZEVQXTE-UHFFFAOYSA-N,CCCC(C)Cl,-2.63,0.13485,2.0,G3,106.596,2.4138,30.223,6.0,0.0,0.0,1.0,2.0,38.0,0.0,0.0,0.0,0.0,0.0,44.50228571,2.627214848,25.11941548
1259,A-2177,2-decyloxirane,"InChI=1S/C12H24O/c1-2-3-4-5-6-7-8-9-10-12-11-13-12/h12H,2-11H2,1H3",MPGABYXKKCLIRW-UHFFFAOYSA-N,CCCCCCCCCCC1CO1,-5.92315685,0.0,1.0,G1,184.323,3.916,56.967,13.0,1.0,0.0,1.0,9.0,78.0,0.0,1.0,1.0,1.0,12.53,82.86132836,1.634412439,107.6921041
9178,F-439,"2,2,4-triethyl-n-hydroxyoctanamide","InChI=1S/C14H29NO2/c1-5-9-10-12(6-2)11-14(7-3,8-4)13(16)15-17/h12,17H,5-11H2,1-4H3,(H,15,16)",OPOPTXYBSHDZOM-UHFFFAOYSA-N,CCCCC(CC)CC(CC)(CC)C(=O)NO,-3.35,0.0,1.0,G1,243.391,3.9047,70.8672,17.0,2.0,2.0,3.0,9.0,102.0,0.0,0.0,0.0,0.0,49.33,105.9431551,4.645063519,212.2677494
4922,B-1729,"4-heptanol, 3-methyl-","InChI=1S/C8H18O/c1-4-6-8(9)7(3)5-2/h7-9H,4-6H2,1-3H3",JMRDKKYZLXDPLN-UHFFFAOYSA-N,CCCC(O)C(C)CC,-1.8406,0.0,1.0,G1,130.231,2.1935,40.3698,9.0,1.0,1.0,1.0,4.0,56.0,0.0,0.0,0.0,0.0,20.23,58.08807958,3.324760174,61.58797504
8050,C-1950,l-dopa pentyl ester,"InChI=1S/C14H21NO4/c1-2-3-4-7-19-14(18)11(15)8-10-5-6-12(16)13(17)9-10/h5-6,9,11,16-17H,2-4,7-8,15H2,1H3",WGYXRPGKLMQCLW-UHFFFAOYSA-N,CCCCCOC(=O)C(N)CC1=CC(=C(O)C=C1)O,-0.99,0.0,1.0,G1,267.325,1.701,71.935,19.0,5.0,3.0,5.0,7.0,106.0,1.0,0.0,0.0,1.0,92.78,112.5543656,2.422376134,419.9070331
6371,B-3350,"propanamide, 2-hydroxy-n-tetradecyl-","InChI=1S/C17H35NO2/c1-3-4-5-6-7-8-9-10-11-12-13-14-15-18-17(20)16(2)19/h16,19H,3-15H2,1-2H3,(H,18,20)",BPSSWVRROCFULD-UHFFFAOYSA-N,CCCCCCCCCCCCCCNC(=O)C(C)O,-3.9784,0.0,1.0,G1,285.472,4.1845,85.7685,20.0,2.0,2.0,3.0,14.0,120.0,0.0,0.0,0.0,0.0,49.33,125.0839429,3.044723507,217.0355436
7652,C-1238,n-(benzoyloxyacetyl)pyrrolidine,"InChI=1S/C13H15NO3/c15-12(14-8-4-5-9-14)10-17-13(16)11-6-2-1-3-7-11/h1-3,6-7H,4-5,8-10H2",GILNGPKTMRSQDW-UHFFFAOYSA-N,O=C(COC(=O)C1=CC=CC=C1)N2CCCC2,-1.57,0.0,1.0,G1,233.267,1.4658,62.5385,17.0,3.0,0.0,4.0,3.0,90.0,1.0,1.0,1.0,2.0,46.61,100.1765899,1.817639396,396.3854188
4471,B-1188,zinc formate,"InChI=1S/2CH2O2.Zn/c2*2-1-3;/h2*1H,(H,2,3);/q;;+2/p-2",XOBMCBQSUCOAOC-UHFFFAOYSA-L,[Zn++].[O-]C=O.[O-]C=O,-0.4755,0.0,1.0,G1,155.424,-3.2703,12.128,7.0,4.0,0.0,5.0,0.0,36.0,0.0,0.0,0.0,0.0,80.26,52.90486404,-4e-08,30.67103446