,ID,Name,InChI,InChIKey,SMILES,Solubility,SD,Ocurrences,Group,MolWt,MolLogP,MolMR,HeavyAtomCount,NumHAcceptors,NumHDonors,NumHeteroatoms,NumRotatableBonds,NumValenceElectrons,NumAromaticRings,NumSaturatedRings,NumAliphaticRings,RingCount,TPSA,LabuteASA,BalabanJ,BertzCT
5632,B-2522,"1-pentene, 5-isothiocyanato-","InChI=1S/C6H9NS/c1-2-3-4-5-7-6-8/h2H,1,3-5H2",DBISBKDNOKIADM-UHFFFAOYSA-N,C=CCCCN=C=S,-2.9004,0.0,1.0,G1,127.212,2.0554,39.324,8.0,2.0,0.0,2.0,4.0,44.0,0.0,0.0,0.0,0.0,12.36,55.1284613,2.925623031,103.0961628
6999,B-4331,"1,3-benzodioxole-5-acetic acid, .alpha.-oxo-","InChI=1S/C9H6O5/c10-8(9(11)12)5-1-2-6-7(3-5)14-4-13-6/h1-3H,4H2,(H,11,12)",VIIPQXJHKXQJKY-UHFFFAOYSA-N,OC(=O)C(=O)c1ccc2OCOc2c1,-1.1912,0.0,1.0,G1,194.142,0.6826,44.5313,14.0,4.0,1.0,5.0,2.0,72.0,1.0,0.0,1.0,2.0,72.83,78.86476672,2.377297295,409.6633827
2317,A-3867,N-methylmethanaminium chloride,"InChI=1S/C2H7N.ClH/c1-3-2;/h3H,1-2H3;1H",IQDGSYLLQPDQDV-UHFFFAOYSA-N,[H+].[Cl-].CNC,1.565718592,0.0,1.0,G1,81.546,-3.0479,16.0957,4.0,1.0,1.0,2.0,0.0,28.0,0.0,0.0,0.0,0.0,12.03,34.29194695,-2e-08,9.609640474
6093,B-3045,"2-propenoic acid, 3-(2-ethoxyphenyl)-, (e)-","InChI=1S/C11H12O3/c1-2-14-10-6-4-3-5-9(10)7-8-11(12)13/h3-8H,2H2,1H3,(H,12,13)/p-1/b8-7+",UXTDCJJEJZCEBF-BQYQJAHWSA-M,CCOc1ccccc1\C=C\C([O-])=O,-3.3248,0.0,1.0,G1,191.206,0.8484,51.652,14.0,3.0,0.0,3.0,4.0,74.0,1.0,0.0,0.0,1.0,49.36,82.63581174,2.888868796,342.14081
3927,B-428,"4-oxo-4h-pyran-2,6-dicarboxylic acid","InChI=1S/C7H4O6/c8-3-1-4(6(9)10)13-5(2-3)7(11)12/h1-2H,(H,9,10)(H,11,12)",PBAYDYUZOSNJGU-UHFFFAOYSA-N,OC(=O)C1=CC(=O)C=C(O1)C(O)=O,-1.1097,0.0,1.0,G1,184.103,0.0362,38.8966,13.0,4.0,2.0,6.0,2.0,68.0,1.0,0.0,0.0,1.0,104.81,71.03913798,3.350192976,379.9860983
5871,B-2794,"2,2',3,3',4,4',5-heptachlorobiphenyl",InChI=1S/C12H3Cl7/c13-6-2-1-4(8(15)10(6)17)5-3-7(14)11(18)12(19)9(5)16/h1-3H,RMPWIIKNWPVWNG-UHFFFAOYSA-N,Clc1ccc(c(Cl)c1Cl)c2cc(Cl)c(Cl)c(Cl)c2Cl,-8.0566,0.0,1.0,G1,395.327,7.9274,86.948,19.0,0.0,0.0,7.0,1.0,100.0,2.0,0.0,0.0,2.0,0.0,144.6113609,2.768496896,663.8579667
7595,C-1096,"1,4-benzoquinone;  quinone",InChI=1S/C6H4O2/c7-5-1-2-6(8)4-3-5/h1-4H,AZQWKYJCGOJGHM-UHFFFAOYSA-N,O=C1C=CC(=O)C=C1,-0.89,0.183246798,3.0,G5,108.096,0.2506,28.294,8.0,2.0,0.0,2.0,0.0,40.0,0.0,0.0,1.0,1.0,34.14,46.50196858,2.826476553,148.7052162
1285,A-2235,lanthanum(+3) cation; oxygen(-2) anion,InChI=1S/2La.3O/q2*+3;3*-2,MRELNEQAGSRDBK-UHFFFAOYSA-N,[O--].[O--].[O--].[La+3].[La+3],-6.670353837,0.0,1.0,G1,325.809,-0.3564,2.0595,5.0,0.0,0.0,5.0,0.0,24.0,0.0,0.0,0.0,0.0,85.5,86.01814517,0.0,4.854752972
3429,A-5676,ethyl 9-oxo-9H-thioxanthene-2-carboxylate,"InChI=1S/C16H12O3S/c1-2-19-16(18)10-7-8-14-12(9-10)15(17)11-5-3-4-6-13(11)20-14/h3-9H,2H2,1H3",PKUZBJXWIOTQFQ-UHFFFAOYSA-N,CCOC(=O)c1ccc2Sc3ccccc3C(=O)c2c1,-6.756602507,0.0,1.0,G1,284.336,3.5914,81.5575,20.0,4.0,0.0,4.0,2.0,100.0,3.0,0.0,0.0,3.0,43.37,118.9769988,2.284391425,864.349784
3879,B-357,"2,3-naphthalenediol","InChI=1S/C10H8O2/c11-9-5-7-3-1-2-4-8(7)6-10(9)12/h1-6,11-12H",JRNGUTKWMSBIBF-UHFFFAOYSA-N,Oc1cc2ccccc2cc1O,-2.7377,0.0,1.0,G1,160.172,2.251,47.2776,12.0,2.0,2.0,2.0,0.0,60.0,2.0,0.0,0.0,2.0,40.46,69.70153516,2.839519943,380.6081353
7294,C-290,"spiro-5,5-undecamethylenebarbituric acid","InChI=1S/C15H24N2O3/c18-12-15(13(19)17-14(20)16-12)10-8-6-4-2-1-3-5-7-9-11-15/h1-11H2,(H2,16,17,18,19,20)",HALJZHTVEIOBKZ-UHFFFAOYSA-N,O=C1NC(=O)C2(CCCCCCCCCCC2)C(=O)N1,-5.8,0.0,1.0,G1,280.368,2.6435,74.9014,20.0,3.0,2.0,5.0,0.0,112.0,0.0,2.0,2.0,2.0,75.27,119.421069,2.081117244,358.5798645
686,A-1196,"N,N-dimethyldodecanamide","InChI=1S/C14H29NO/c1-4-5-6-7-8-9-10-11-12-13-14(16)15(2)3/h4-13H2,1-3H3",BDYUSDIJIDGWCY-UHFFFAOYSA-N,CCCCCCCCCCCC(=O)N(C)C,-3.909307051,0.0,1.0,G1,227.392,3.9955,70.538,16.0,1.0,0.0,2.0,10.0,96.0,0.0,0.0,0.0,0.0,20.31,101.4048543,3.068551514,166.1182766
8090,C-2008,"2,4,6,7-pteridinetetraone","InChI=1S/C6H4N4O4/c11-3-1-2(9-6(14)10-3)8-5(13)4(12)7-1/h(H,7,12)(H3,8,9,10,11,13,14)",MVKRISPIRVEPFM-UHFFFAOYSA-N,O=C1NC(=O)C2=C(N1)NC(=O)C(=O)N2,-4.06,0.0,1.0,G1,196.122,-2.407,46.4308,14.0,4.0,4.0,8.0,0.0,72.0,2.0,0.0,0.0,2.0,131.44,73.63774798,3.196086619,715.1596409
5237,B-2074,niflumic acid,"InChI=1S/C13H9F3N2O2/c14-13(15,16)8-3-1-4-9(7-8)18-11-10(12(19)20)5-2-6-17-11/h1-7H,(H,17,18)(H,19,20)",JZFPYUNJRRFVQU-UHFFFAOYSA-N,OC(=O)c1cccnc1Nc2cccc(c2)C(F)(F)F,-4.1718,0.363754875,3.0,G5,282.221,3.5422,65.923,20.0,3.0,2.0,7.0,3.0,104.0,2.0,0.0,0.0,2.0,62.22,111.4402538,2.337930512,641.5085495
1422,A-2458,"2-{2-[(8E)-heptadec-8-en-1-yl]-4,5-dihydro-1H-imidazol-1-yl}ethan-1-ol","InChI=1S/C22H42N2O/c1-2-3-4-5-6-7-8-9-10-11-12-13-14-15-16-17-22-23-18-19-24(22)20-21-25/h9-10,25H,2-8,11-21H2,1H3/b10-9-",WGTDLPBPQKAPMN-KTKRTIGZSA-N,CCCCCCCC\C=C/CCCCCCCC1=NCCN1CCO,-3.845830759,0.150514998,2.0,G3,350.591,5.7303,110.4128,25.0,3.0,1.0,3.0,17.0,146.0,0.0,0.0,1.0,1.0,35.83,156.1569912,1.818913362,351.9363823
9941,I-11,atropine,"InChI=1S/C17H23NO3/c1-18-13-7-8-14(18)10-15(9-13)21-17(20)16(11-19)12-5-3-2-4-6-12/h2-6,13-16,19H,7-11H2,1H3/t13-,14+,15+,16?",RKUNBYITZUJHSG-SPUOUPEWSA-N,CN1[C@H]2CC[C@@H]1C[C@@H](C2)OC(=O)C(CO)C1=CC=CC=C1,-2.0,0.0,1.0,G1,289.375,1.9309,79.9558,21.0,4.0,1.0,4.0,4.0,114.0,1.0,2.0,2.0,3.0,49.77,125.2632388,1.632677623,476.0684046
4992,B-1810,lenacil,"InChI=1S/C13H18N2O2/c16-12-10-7-4-8-11(10)14-13(17)15(12)9-5-2-1-3-6-9/h9H,1-8H2,(H,14,17)",ZTMKADLOSYKWCA-UHFFFAOYSA-N,O=C1NC2=C(CCC2)C(=O)N1C3CCCCC3,-4.5916,0.0,1.0,G1,234.299,1.5305,65.4697,17.0,3.0,1.0,4.0,1.0,92.0,1.0,1.0,2.0,3.0,54.86,99.67653149,2.100410447,535.330936
5734,B-2634,"octanedioic acid, 3,3,6,6-tetramethyl-","InChI=1S/C12H22O4/c1-11(2,7-9(13)14)5-6-12(3,4)8-10(15)16/h5-8H2,1-4H3,(H,13,14)(H,15,16)",XCPSWBNEOGUWCT-UHFFFAOYSA-N,CC(C)(CCC(C)(C)CC(O)=O)CC(O)=O,-3.1319,0.0,1.0,G1,230.304,2.7684,61.3016,16.0,2.0,2.0,4.0,7.0,94.0,0.0,0.0,0.0,0.0,74.6,96.66512599,4.21123026,238.1923256
2395,A-3998,C.i.Basic Violet 11,"InChI=1S/C30H35N2O3.ClH/c1-6-31(7-2)21-15-17-25-27(19-21)35-28-20-22(32(8-3)9-4)16-18-26(28)29(25)23-13-11-12-14-24(23)30(33)34-10-5;/h11-20H,6-10H2,1-5H3;1H/q+1;/p-1",UOKMUTMXUMSRKM-UHFFFAOYSA-M,[Cl-].CCOC(=O)c1ccccc1c2c3ccc(cc3[o+]c4cc(ccc24)N(CC)CC)N(CC)CC,-1.280189706,0.0,1.0,G1,507.074,4.4072,146.6415,36.0,4.0,0.0,6.0,9.0,190.0,4.0,0.0,0.0,4.0,44.08,219.6188344,3.61e-06,1277.113937
7647,C-1229,1-propanoyloxymethyl-5-fluorouracil,"InChI=1S/C8H9FN2O4/c1-2-6(12)15-4-11-3-5(9)7(13)10-8(11)14/h3H,2,4H2,1H3,(H,10,13,14)",ZAAKYBGGELSVCK-UHFFFAOYSA-N,CCC(=O)OCN1C=C(F)C(=O)NC1=O,-0.81,0.0,1.0,G1,216.168,-0.4136,47.6637,15.0,5.0,1.0,7.0,3.0,82.0,1.0,0.0,0.0,1.0,81.16,83.30408596,2.869657383,476.2653928
5119,B-1946,"3,5-dichloro-2,6-dimethyl-4-pyridinol","InChI=1S/C7H7Cl2NO/c1-3-5(8)7(11)6(9)4(2)10-3/h1-2H3,(H,10,11)",ZDPIZLCVJAAHHR-UHFFFAOYSA-N,CC1=C(Cl)C(=O)C(=C(C)N1)Cl,-4.2834,0.0,1.0,G1,192.045,2.29854,46.5567,11.0,1.0,1.0,4.0,0.0,60.0,1.0,0.0,0.0,1.0,32.86,74.14898988,3.592824832,313.7791897
6962,B-4280,"1,7-phenanthroline",InChI=1S/C12H8N2/c1-3-9-5-6-11-10(4-2-7-13-11)12(9)14-8-1/h1-8H,OZKOMUDCMCEDTM-UHFFFAOYSA-N,c1cnc2c(c1)ccc3ncccc23,-2.6806,0.0,1.0,G1,180.21,2.783,57.044,14.0,2.0,0.0,2.0,0.0,66.0,3.0,0.0,0.0,3.0,25.78,81.23402814,2.610318687,547.2925175
4881,B-1685,daminozide,"InChI=1S/C6H12N2O3/c1-8(2)7-5(9)3-4-6(10)11/h3-4H2,1-2H3,(H,7,9)(H,10,11)",NOQGZXFMHARMLW-UHFFFAOYSA-N,CN(C)NC(=O)CCC(O)=O,-0.2046,0.0,1.0,G1,160.173,-0.556,38.6995,11.0,3.0,2.0,5.0,4.0,64.0,0.0,0.0,0.0,0.0,69.64,64.96107143,3.454102565,155.9063854
8614,D-1666,methanedisulfonic acid,"InChI=1S/CH4O6S2/c2-8(3,4)1-9(5,6)7/h1H2,(H,2,3,4)(H,5,6,7)",OPUAWDUYWRUIIL-UHFFFAOYSA-N,O[S](=O)(=O)C[S](O)(=O)=O,0.754,0.200921632,3.0,G5,176.171,-1.2805,27.9642,9.0,4.0,2.0,8.0,2.0,56.0,0.0,0.0,0.0,0.0,108.74,51.99652305,4.458227082,236.1797213
121,A-201,"1,1':4',1''-terphenyl",InChI=1S/C18H14/c1-3-7-15(8-4-1)17-11-13-18(14-12-17)16-9-5-2-6-10-16/h1-14H,XJKSTNDFUHDPQJ-UHFFFAOYSA-N,c1ccc(cc1)c2ccc(cc2)c3ccccc3,-6.183335848,0.461832076,2.0,G3,230.31,5.0206,77.314,18.0,0.0,0.0,0.0,2.0,86.0,3.0,0.0,0.0,3.0,0.0,107.5455915,1.951466169,548.7160655
5224,B-2060,"propanoic acid, 3-methoxy-, butyl ester","InChI=1S/C8H16O3/c1-3-4-6-11-8(9)5-7-10-2/h3-7H2,1-2H3",RRIRSNXZGJWTQM-UHFFFAOYSA-N,CCCCOC(=O)CCOC,-1.2135,0.0,1.0,G1,160.213,1.3662,42.36,11.0,3.0,0.0,3.0,6.0,66.0,0.0,0.0,0.0,0.0,35.53,67.68245839,3.089479528,101.510293
2743,A-4580,"5-methyl-1,2-oxazole-4-carboxylate","InChI=1S/C5H5NO3/c1-3-4(5(7)8)2-6-9-3/h2H,1H3,(H,7,8)/p-1",VQBXUKGMJCPBMF-UHFFFAOYSA-M,Cc1oncc1C([O-])=O,-1.05536111,0.0,1.0,G1,126.091,-0.65348,25.5705,9.0,4.0,0.0,4.0,1.0,48.0,1.0,0.0,0.0,1.0,66.16,51.08237675,3.07666344,227.8619086
5271,B-2112,"acetamide, 2-chloro-n-(chloroacetyl)-","InChI=1S/C4H5Cl2NO2/c5-1-3(8)7-4(9)2-6/h1-2H2,(H,7,8,9)",UWZCYHHAEYIVRW-UHFFFAOYSA-N,ClCC(=O)NC(=O)CCl,-2.2304,0.0,1.0,G1,169.995,0.1068,34.5897,9.0,2.0,1.0,5.0,2.0,52.0,0.0,0.0,0.0,0.0,46.17,62.31351621,3.471317626,111.7360429
290,A-487,(3E)-4-methyldec-3-en-5-ol,"InChI=1S/C11H22O/c1-4-6-7-9-11(12)10(3)8-5-2/h8,11-12H,4-7,9H2,1-3H3/b10-8+",WSTQLNQRVZNEDV-CSKARUKUSA-N,CCCCCC(O)C(/C)=C/CC,-3.431863898,0.0,1.0,G1,170.296,3.2839,54.1968,12.0,1.0,1.0,1.0,6.0,72.0,0.0,0.0,0.0,0.0,20.23,76.49330289,3.561023722,126.9658022
8932,E-1274,acetylsalicylic_acid,"InChI=1S/C9H8O4/c1-6(10)13-8-5-3-2-4-7(8)9(11)12/h2-5H,1H3,(H,11,12)",BSYNRYMUTXBXSQ-UHFFFAOYSA-N,O=C(Oc(c(ccc1)C(=O)O)c1)C,-1.72,0.068599689,4.0,G5,180.159,1.3101,44.7103,13.0,3.0,1.0,4.0,2.0,68.0,1.0,0.0,0.0,1.0,63.6,74.75705264,3.043527355,343.2228677
6833,B-4090,"2',3,4,4',5'-pcb",InChI=1S/C12H5Cl5/c13-8-2-1-6(3-10(8)15)7-4-11(16)12(17)5-9(7)14/h1-5H,IUTPYMGCWINGEY-UHFFFAOYSA-N,Clc1ccc(cc1Cl)c2cc(Cl)c(Cl)cc2Cl,-7.3867,0.40665,2.0,G3,326.437,6.6206,76.928,17.0,0.0,0.0,5.0,1.0,88.0,2.0,0.0,0.0,2.0,0.0,124.0048285,2.598865734,577.3489384
4049,B-646,methoxy triethylene glycol,"InChI=1S/C7H16O4/c1-9-4-5-11-7-6-10-3-2-8/h8H,2-7H2,1H3",JLGLQAWTXXGVEM-UHFFFAOYSA-N,COCCOCCOCCO,0.7846,0.0,1.0,G1,164.201,-0.3417,40.5998,11.0,4.0,1.0,4.0,8.0,68.0,0.0,0.0,0.0,0.0,47.92,67.06377315,2.690915527,59.46091338
405,A-691,tert-butoxy 2-ethylhexyl carbonate,"InChI=1S/C13H26O4/c1-6-8-9-11(7-2)10-15-12(14)16-17-13(3,4)5/h11H,6-10H2,1-5H3",BRQMAAFGEXNUOL-UHFFFAOYSA-N,CCCCC(CC)COC(=O)OOC(C)(C)C,-4.659958513,0.0,1.0,G1,246.347,4.0861,66.577,17.0,4.0,0.0,4.0,7.0,102.0,0.0,0.0,0.0,0.0,44.76,104.5500095,3.732232764,207.9552269
4604,B-1345,1-penten-3-ol,"InChI=1S/C5H10O/c1-3-5(6)4-2/h3,5-6H,1,4H2,2H3",VHVMXWZXFBOANQ-UHFFFAOYSA-N,CCC(O)C=C,0.0193,0.0,1.0,G1,86.134,0.9433,26.4948,6.0,1.0,1.0,1.0,2.0,36.0,0.0,0.0,0.0,0.0,20.23,38.30365021,2.964900495,41.20310344
6901,B-4200,ronnel,"InChI=1S/C8H8Cl3O3PS/c1-12-15(16,13-2)14-8-4-6(10)5(9)3-7(8)11/h3-4H,1-2H3",JHJOOSLFWRRSGU-UHFFFAOYSA-N,CO[P](=S)(OC)Oc1cc(Cl)c(Cl)cc1Cl,-5.5072,0.718787226,3.0,G4,321.549,4.5429,70.403,16.0,4.0,0.0,8.0,4.0,90.0,1.0,0.0,0.0,1.0,27.69,113.7916498,3.063766854,432.7818664
447,A-781,Tazobactam,"InChI=1S/C10H12N4O5S/c1-10(5-13-3-2-11-12-13)8(9(16)17)14-6(15)4-7(14)20(10,18)19/h2-3,7-8H,4-5H2,1H3,(H,16,17)/t7-,8+,10+/m1/s1",LPQZKKCYTLCDGQ-WEDXCCLWSA-N,C[C@]1(Cn2ccnn2)[C@@H](N3[C@@H](CC3=O)[S]1(=O)=O)C(O)=O,-1.838461676,0.0,1.0,G1,300.296,-1.5232,64.0216,20.0,7.0,1.0,10.0,3.0,108.0,1.0,2.0,2.0,3.0,122.46,113.6371227,2.097498684,684.5109353
636,A-1115,titanium(4+) ion zirconium(4+) ion lead(2+) ion pentaoxidandiide,InChI=1S/5O.Pb.Ti.Zr/q5*-2;+2;2*+4,HFGPZNIAWCZYJU-UHFFFAOYSA-N,[O--].[O--].[O--].[O--].[O--].[Ti+4].[Zr+4].[Pb++],-5.098222153,0.0,1.0,G1,426.286,-0.9798,9.1865,8.0,0.0,0.0,8.0,0.0,42.0,0.0,0.0,0.0,0.0,142.5,101.3091877,0.0,12.39035953
2306,A-3842,4-fluoroaniline,"InChI=1S/C6H6FN/c7-5-1-3-6(8)4-2-5/h1-4H,8H2",KRZCOLNOCZKSDF-UHFFFAOYSA-N,Nc1ccc(F)cc1,-0.527274385,0.0,1.0,G1,111.119,1.4079,30.8124,8.0,1.0,1.0,2.0,0.0,42.0,1.0,0.0,0.0,1.0,26.02,46.93682922,3.032455532,147.3883389
41,A-61,cyclohexanecarboxylic acid,"InChI=1S/C7H12O2/c8-7(9)6-4-2-1-3-5-6/h6H,1-5H2,(H,8,9)",NZNMSOFKMUBTKW-UHFFFAOYSA-N,OC(=O)C1CCCCC1,-1.445031941,0.18248403,2.0,G3,128.171,1.6513,34.2108,9.0,1.0,1.0,2.0,1.0,52.0,0.0,1.0,1.0,1.0,37.3,54.87882841,2.312191534,103.4837784
5965,B-2899,oxyfluorfen,"InChI=1S/C15H11ClF3NO4/c1-2-23-14-8-10(4-5-12(14)20(21)22)24-13-6-3-9(7-11(13)16)15(17,18)19/h3-8H,2H2,1H3",OQMBBFQZGJFLBU-UHFFFAOYSA-N,CCOc1cc(Oc2ccc(cc2Cl)C(F)(F)F)ccc1[N+]([O-])=O,-6.4939,0.03205,2.0,G3,361.703,5.458,80.7934,24.0,4.0,0.0,9.0,5.0,128.0,2.0,0.0,0.0,2.0,61.6,139.2632623,2.310390332,764.8697632
5729,B-2628,"1h-purine-2,6-dione, 3,7-dihydro-7-(3-hydroxypro","InChI=1S/C10H14N4O3/c1-12-8-7(9(16)13(2)10(12)17)14(6-11-8)4-3-5-15/h6,15H,3-5H2,1-2H3",QCGRMMZPZDAITA-UHFFFAOYSA-N,CN1C(=O)N(C)c2ncn(CCCO)c2C1=O,-0.1551,0.0,1.0,G1,238.247,-1.1839,61.9178,17.0,7.0,1.0,7.0,3.0,92.0,2.0,0.0,0.0,2.0,82.05,96.553075,2.766339792,664.4664515
5437,B-2301,"barbituric acid, 5-ipr","InChI=1S/C7H10N2O3/c1-3(2)4-5(10)8-7(12)9-6(4)11/h3-4H,1-2H3,(H2,8,9,10,11,12)",GFPIGNBQTXNNAG-UHFFFAOYSA-N,CC(C)C1C(=O)NC(=O)NC1=O,-1.4556,0.0,1.0,G1,170.168,-0.3754,40.0094,12.0,3.0,2.0,5.0,1.0,66.0,0.0,1.0,1.0,1.0,75.27,69.50736323,2.806701271,227.0360434
2283,A-3798,potassium chloride,InChI=1S/ClH.K/h1H;/q;+1/p-1,WCUXLLCKKVVCTQ-UHFFFAOYSA-M,[Cl-].[K+],0.67777488,0.019303695,4.0,G5,74.551,-5.992,0.0,2.0,0.0,0.0,2.0,0.0,8.0,0.0,0.0,0.0,0.0,0.0,62.44413571,0.0,2.0
4842,B-1634,tranexamic acid,"InChI=1S/C8H15NO2/c9-5-6-1-3-7(4-2-6)8(10)11/h6-7H,1-5,9H2,(H,10,11)",GYDJEQRTZSCIOI-UHFFFAOYSA-N,NCC1CCC(CC1)C(O)=O,0.0255,0.0,1.0,G1,157.213,0.8361,42.1382,11.0,2.0,2.0,3.0,2.0,64.0,0.0,1.0,1.0,1.0,63.32,66.58366122,2.297820229,139.0274844
3107,A-5176,zinc(2+) ion bis(2-ethylhexanoate),"InChI=1S/2C8H16O2.Zn/c2*1-3-5-6-7(4-2)8(9)10;/h2*7H,3-6H2,1-2H3,(H,9,10);/q;;+2/p-2",IFNXAMCERSVZCV-UHFFFAOYSA-L,[Zn++].CCCCC(CC)C([O-])=O.CCCCC(CC)C([O-])=O,0.455435409,0.364685669,2.0,G3,351.802,1.9029,76.626,21.0,4.0,0.0,5.0,10.0,120.0,0.0,0.0,0.0,0.0,80.26,142.0140536,-2.95e-07,230.6615312
8059,C-1959,equilin,"InChI=1S/C18H20O2/c1-18-9-8-14-13-5-3-12(19)10-11(13)2-4-15(14)16(18)6-7-17(18)20/h3-5,10,14,16,19H,2,6-9H2,1H3",WKRLQDKEXYKHJB-UHFFFAOYSA-N,CC12CCC3C(=CCC4=C3C=CC(=C4)O)C1CCC2=O,-4.99,0.145,2.0,G3,268.356,3.7375,77.7068,20.0,2.0,1.0,2.0,0.0,104.0,1.0,2.0,3.0,4.0,37.3,119.0593679,1.774238223,628.3054351
9883,H-231,Hexachlorobenzene  ,InChI=1S/C6Cl6/c7-1-2(8)4(10)6(12)5(11)3(1)9,CKAPSXZOOQJIBF-UHFFFAOYSA-N,ClC1=C(Cl)C(Cl)=C(Cl)C(Cl)=C1Cl,-7.56,0.393971914,3.0,G5,284.784,5.607,56.502,12.0,0.0,0.0,6.0,0.0,66.0,1.0,0.0,0.0,1.0,0.0,99.25100048,3.603567451,226.3030902
2224,A-3683,disodium carbonate,"InChI=1S/CH2O3.2Na/c2-1(3)4;;/h(H2,2,3,4);;/q;2*+1/p-2",CDBYLPFSWZWCQE-UHFFFAOYSA-L,[Na+].[Na+].[O-]C([O-])=O,0.581124668,0.139511215,2.0,G3,105.988,-8.439,5.396,6.0,3.0,0.0,5.0,0.0,24.0,0.0,0.0,0.0,0.0,63.19,79.31603988,-4.5e-08,31.77443751
113,A-191,3-methylbutyl (2E)-3-(4-methoxyphenyl)prop-2-enoate,"InChI=1S/C15H20O3/c1-12(2)10-11-18-15(16)9-6-13-4-7-14(17-3)8-5-13/h4-9,12H,10-11H2,1-3H3/b9-6+",UBNYRXMKIIGMKK-RMKNXTFCSA-N,COc1ccc(\C=C\C(=O)OCCC(C)C)cc1,-5.49192521,0.0,1.0,G1,248.322,3.2977,72.442,18.0,3.0,0.0,3.0,6.0,98.0,1.0,0.0,0.0,1.0,35.53,108.4148917,2.398340762,390.7046704
8425,C-2500,"4-(6,7-dimethoxyquinazolin-4-yl)piperazine-1-carbothioic acid (furan-2-ylmethyl)amide","InChI=1S/C20H23N5O3S/c1-26-17-10-15-16(11-18(17)27-2)22-13-23-19(15)24-5-7-25(8-6-24)20(29)21-12-14-4-3-9-28-14/h3-4,9-11,13H,5-8,12H2,1-2H3,(H,21,29)",CIWLFJDHBPQVQC-UHFFFAOYSA-N,COC1=CC2=C(C=C1OC)C(=NC=N2)N3CCN(CC3)C(=S)NCC4=CC=CO4,-5.63,0.0,1.0,G1,413.503,2.4367,114.5737,29.0,7.0,1.0,9.0,5.0,152.0,3.0,1.0,1.0,4.0,75.89,173.9728931,1.451233256,987.2002824
6321,B-3298,propisochlor,"InChI=1S/C15H22ClNO2/c1-5-13-8-6-7-12(4)15(13)17(14(18)9-16)10-19-11(2)3/h6-8,11H,5,9-10H2,1-4H3",KZNDFYDURHAESM-UHFFFAOYSA-N,CCc1cccc(C)c1N(COC(C)C)C(=O)CCl,-3.1882,0.0,1.0,G1,283.799,3.51172,79.851,19.0,2.0,0.0,4.0,6.0,106.0,1.0,0.0,0.0,1.0,29.54,120.0540494,3.125908796,432.1537927
7364,C-557,asulam;  n1-(methoxycarbonyl)sulfanilamide;  asulox,"InChI=1S/C8H10N2O4S/c1-14-8(11)10-15(12,13)7-4-2-6(9)3-5-7/h2-5H,9H2,1H3,(H,10,11)",VGPYEHKOIGNJKV-UHFFFAOYSA-N,COC(=O)N[S](=O)(=O)C1=CC=C(N)C=C1,-1.76,0.0484,2.0,G3,230.245,0.3135,53.5809,15.0,5.0,2.0,7.0,2.0,82.0,1.0,0.0,0.0,1.0,98.49,87.08688345,2.963576146,452.0349428
669,A-1161,2-benzylheptan-1-ol,"InChI=1S/C14H22O/c1-2-3-5-10-14(12-15)11-13-8-6-4-7-9-13/h4,6-9,14-15H,2-3,5,10-12H2,1H3",CGMOOAUESLSUKM-UHFFFAOYSA-N,CCCCCC(CO)Cc1ccccc1,-3.843268562,0.0,1.0,G1,206.329,3.4179,64.8638,15.0,1.0,1.0,1.0,7.0,84.0,1.0,0.0,0.0,1.0,20.23,93.14517379,2.331616495,242.77543
6193,B-3156,cyprofuram,"InChI=1S/C14H14ClNO3/c15-10-2-1-3-11(8-10)16(13(17)9-4-5-9)12-6-7-19-14(12)18/h1-3,8-9,12H,4-7H2",KRZUZYJEQBXUIN-UHFFFAOYSA-N,Clc1cccc(c1)N(C2CCOC2=O)C(=O)C3CC3,-2.6878,0.0,1.0,G1,279.723,2.3985,71.026,19.0,3.0,0.0,5.0,3.0,100.0,1.0,2.0,2.0,3.0,46.61,115.8389671,1.95183991,527.1772913
8996,F-130,2-(2-cyanoethylamino)-3-methylpentanoic acid,"InChI=1S/C9H16N2O2/c1-3-7(2)8(9(12)13)11-6-4-5-10/h7-8,11H,3-4,6H2,1-2H3,(H,12,13)",SYLKPFKVJHIHES-UHFFFAOYSA-N,CCC(C)C(NCCC#N)C(=O)O,-0.98,0.0,1.0,G1,184.239,0.98898,49.1115,13.0,3.0,2.0,4.0,6.0,74.0,0.0,0.0,0.0,0.0,73.12,78.55698566,3.963497817,198.2816075
5724,B-2623,cyprazine,"InChI=1S/C9H14ClN5/c1-5(2)11-8-13-7(10)14-9(15-8)12-6-3-4-6/h5-6H,3-4H2,1-2H3,(H2,11,12,13,14,15)",OOHIAOSLOGDBCE-UHFFFAOYSA-N,CC(C)Nc1nc(Cl)nc(NC2CC2)n1,-3.5185,0.50075,2.0,G2,227.699,1.9196,60.2404,15.0,5.0,2.0,6.0,4.0,82.0,1.0,1.0,1.0,2.0,62.73,93.67715919,2.113182239,328.1059823
8859,E-937,"DL-1,2-Diphenylethanol","InChI=1S/C14H14O/c15-14(13-9-5-2-6-10-13)11-12-7-3-1-4-8-12/h1-10,14-15H,11H2",GBGXVCNOKWAMIP-UHFFFAOYSA-N,OC(c(cccc1)c1)Cc(cccc2)c2,-2.52,0.0,1.0,G1,198.265,2.9627,61.5478,15.0,1.0,1.0,1.0,3.0,76.0,2.0,0.0,0.0,2.0,20.23,90.01261531,2.078451608,394.1985815
1669,A-2766,hafnium dioxide,InChI=1S/Hf.2O/q+4;2*-2,WIHZLLGSGQNAGK-UHFFFAOYSA-N,[O--].[O--].[Hf+4],-7.244046096,0.0,1.0,G1,210.488,-0.2401,1.373,3.0,0.0,0.0,3.0,0.0,16.0,0.0,0.0,0.0,0.0,57.0,37.2380894,0.0,2.754887502
3470,A-5764,oxotin,InChI=1S/O.Sn,QHGNHLZPVBIIPX-UHFFFAOYSA-N,O=[Sn],-8.82836984,0.0,1.0,G1,134.71,-0.4996,6.4405,2.0,1.0,0.0,2.0,0.0,10.0,0.0,0.0,0.0,0.0,17.07,26.13214626,2.0,2.0
1476,A-2537,"1,1-bis[(2-methylbutan-2-yl)peroxy]cyclohexane","InChI=1S/C16H32O4/c1-7-14(3,4)17-19-16(12-10-9-11-13-16)20-18-15(5,6)8-2/h7-13H2,1-6H3",IMYCVFRTNVMHAD-UHFFFAOYSA-N,CCC(C)(C)OOC1(CCCCC1)OOC(C)(C)CC,-5.460037419,0.50464406,3.0,G4,288.428,4.9204,78.896,20.0,4.0,0.0,4.0,8.0,120.0,0.0,1.0,1.0,1.0,36.92,123.5203231,2.617127416,258.2014596
6262,B-3231,2-(2-chlorophenoxy)propanoic acid,"InChI=1S/C9H9ClO3/c1-6(9(11)12)13-8-5-3-2-4-7(8)10/h2-6H,1H3,(H,11,12)",ZGWNXHRVUJVMCP-UHFFFAOYSA-N,CC(Oc1ccccc1Cl)C(O)=O,-2.2232,0.0,1.0,G1,200.621,2.1919,49.1778,13.0,2.0,1.0,4.0,3.0,70.0,1.0,0.0,0.0,1.0,46.53,80.89879677,2.742841851,311.4830533
1806,A-2958,potassium phosphorous acid,InChI=1S/K.H3O3P/c;1-4(2)3/h;1-3H/q+1;,UUCFTYONLUTOFU-UHFFFAOYSA-N,[K+].OP(O)O,1.152409408,0.0,1.0,G1,121.093,-3.8058,13.5764,5.0,3.0,3.0,5.0,0.0,26.0,0.0,0.0,0.0,0.0,60.69,73.43927102,0.0,11.60964047
1262,A-2180,ethenyl[(ethenyldimethylsilyl)oxy]dimethylsilane,"InChI=1S/C8H18OSi2/c1-7-10(3,4)9-11(5,6)8-2/h7-8H,1-2H2,3-6H3",BITPLIXHRASDQB-UHFFFAOYSA-N,C[Si](C)(O[Si](C)(C)C=C)C=C,-5.954482552,0.0,1.0,G1,186.403,2.8636,56.443,11.0,1.0,0.0,3.0,4.0,64.0,0.0,0.0,0.0,0.0,9.23,72.03681654,4.233343581,143.4749933
8447,C-2526,flutrimazole,"InChI=1S/C22H16F2N2/c23-19-12-10-18(11-13-19)22(26-15-14-25-16-26,17-6-2-1-3-7-17)20-8-4-5-9-21(20)24/h1-16H",QHMWCHQXCUNUAK-UHFFFAOYSA-N,FC1=CC=C(C=C1)C([N]2C=CN=C2)(C3=CC=CC=C3)C4=C(F)C=CC=C4,-8.4,0.0,1.0,G1,346.38,5.0015,96.749,26.0,2.0,0.0,4.0,4.0,128.0,4.0,0.0,0.0,4.0,17.82,149.9374785,2.142548146,996.0236897
8708,E-138,"1,2-dichloroethylene",InChI=1S/C2H2Cl2/c3-1-2-4/h1-2H,KFUSEUYYWQURPO-UHFFFAOYSA-N,ClC=CCl,-1.3,0.0,1.0,G1,96.944,1.9352,20.846,4.0,0.0,0.0,2.0,0.0,24.0,0.0,0.0,0.0,0.0,0.0,35.02112256,2.549193338,19.21928095