,ID,Name,InChI,InChIKey,SMILES,Solubility,SD,Ocurrences,Group,MolWt,MolLogP,MolMR,HeavyAtomCount,NumHAcceptors,NumHDonors,NumHeteroatoms,NumRotatableBonds,NumValenceElectrons,NumAromaticRings,NumSaturatedRings,NumAliphaticRings,RingCount,TPSA,LabuteASA,BalabanJ,BertzCT
5031,B-1853,"butanedioic acid, (1-methylethyl)-","InChI=1S/C7H12O4/c1-4(2)5(7(10)11)3-6(8)9/h4-5H,3H2,1-2H3,(H,8,9)(H,10,11)",RKAFKUROUOLPOL-UHFFFAOYSA-N,CC(C)C(CC(O)=O)C(O)=O,-0.4073,0.0,1.0,G1,160.169,0.8179,38.2166,11.0,2.0,2.0,4.0,4.0,64.0,0.0,0.0,0.0,0.0,74.6,64.84041542,4.115294608,161.8235089
4920,B-1727,nitrofen,InChI=1S/C12H7Cl2NO3/c13-8-1-6-12(11(14)7-8)18-10-4-2-9(3-5-10)15(16)17/h1-7H,XITQUSLLOSKDTB-UHFFFAOYSA-N,[O-][N+](=O)c1ccc(Oc2ccc(Cl)cc2Cl)cc1,-5.4535,0.0,1.0,G1,284.098,4.6939,69.6324,18.0,3.0,0.0,6.0,3.0,92.0,2.0,0.0,0.0,2.0,52.37,112.8615507,2.20564439,584.3764363
2280,A-3793,sodium 4-[(3-amino-4-methylbenzoyl)amino]benzenesulfonate,"InChI=1S/C14H14N2O4S.Na/c1-9-2-3-10(8-13(9)15)14(17)16-11-4-6-12(7-5-11)21(18,19)20;/h2-8H,15H2,1H3,(H,16,17)(H,18,19,20);/q;+1/p-1",QJGAGCZWQGHNDW-UHFFFAOYSA-M,[Na+].Cc1ccc(cc1N)C(=O)Nc2ccc(cc2)[S]([O-])(=O)=O,-0.949277587,0.0,1.0,G1,328.325,-1.26238,77.9498,22.0,5.0,2.0,8.0,3.0,110.0,2.0,0.0,0.0,2.0,112.32,150.3116922,2.42e-06,788.9901783
4629,B-1376,"decanedioic acid, bis(2-ethoxyethyl) ester","InChI=1S/C18H34O6/c1-3-21-13-15-23-17(19)11-9-7-5-6-8-10-12-18(20)24-16-14-22-4-2/h3-16H2,1-2H3",UVRXDBUBNLXONB-UHFFFAOYSA-N,CCOCCOC(=O)CCCCCCCCC(=O)OCCOCC,-3.1972,0.0,1.0,G1,346.464,3.2666,91.84,24.0,6.0,0.0,6.0,17.0,142.0,0.0,0.0,0.0,0.0,71.06,145.7204921,3.240138741,275.8841107
9542,F-951,N-[4-(acridin-9-ylamino)-3-methylaminophenyl]methanesulfonamide,"InChI=1S/C21H20N4O2S/c1-22-20-13-14(25-28(2,26)27)11-12-19(20)24-21-15-7-3-5-9-17(15)23-18-10-6-4-8-16(18)21/h3-13,22,25H,1-2H3,(H,23,24)",FODDJNZEXHBBKD-UHFFFAOYSA-N,CNC1=C(NC2=C3C=CC=CC3=NC3=C2C=CC=C3)C=CC(NS(C)(=O)=O)=C1,-2.94,0.0,1.0,G1,392.484,4.5448,116.9869,28.0,5.0,3.0,7.0,5.0,142.0,4.0,0.0,0.0,4.0,83.12,163.211721,1.851367262,1232.326571
2770,A-4628,tetraethyl silicate,"InChI=1S/C8H20O4Si/c1-5-9-13(10-6-2,11-7-3)12-8-4/h5-8H2,1-4H3",BOTDANWDWHJENH-UHFFFAOYSA-N,CCO[Si](OCC)(OCC)OCC,-2.145565545,0.0,1.0,G1,208.33,1.568,52.258,13.0,4.0,0.0,5.0,8.0,80.0,0.0,0.0,0.0,0.0,36.92,81.62232811,4.185611645,91.20187915
2352,A-3915,N-(2-methoxyphenyl)-3-oxobutanamide,"InChI=1S/C11H13NO3/c1-8(13)7-11(14)12-9-5-3-4-6-10(9)15-2/h3-6H,7H2,1-2H3,(H,12,14)",KYYRTDXOHQYZPO-UHFFFAOYSA-N,COc1ccccc1NC(=O)CC(C)=O,-1.805905521,0.0,1.0,G1,207.229,1.6128,56.9217,15.0,3.0,1.0,4.0,4.0,80.0,1.0,0.0,0.0,1.0,55.4,88.2425653,2.711793612,373.8507128
671,A-1165,"(2E)-3,7-dimethylocta-2,6-dien-1-yl acetate","InChI=1S/C12H20O2/c1-10(2)6-5-7-11(3)8-9-14-12(4)13/h6,8H,5,7,9H2,1-4H3/b11-8+",HIGQPQRQIQDZMP-DHZHZOJOSA-N,CC(=O)OC/C=C(C)/CCC=C(C)C,-3.830500177,0.0,1.0,G1,196.29,3.2422,59.055,14.0,2.0,0.0,2.0,5.0,80.0,0.0,0.0,0.0,0.0,26.3,86.64947555,3.670448527,232.7062842
421,A-724,3-methylbutyl 3-methylbutanoate,"InChI=1S/C10H20O2/c1-8(2)5-6-12-10(11)7-9(3)4/h8-9H,5-7H2,1-4H3",XINCECQTMHSORG-UHFFFAOYSA-N,CC(C)CCOC(=O)CC(C)C,-3.554059535,0.0,1.0,G1,172.268,2.6218,49.869,12.0,2.0,0.0,2.0,5.0,72.0,0.0,0.0,0.0,0.0,26.3,75.29879739,3.319780861,127.8002691
2136,A-3523,"sodium 2-{[4-(cyclohexylamino)-9,10-dioxo-9,10-dihydroanthracen-1-yl]amino}-5-ethoxybenzene-1-sulfonate","InChI=1S/C28H28N2O6S.Na/c1-2-36-22-13-8-11-18-24(22)28(32)26-20(29-17-9-4-3-5-10-17)15-16-21(25(26)27(18)31)30-19-12-6-7-14-23(19)37(33,34)35;/h6-8,11-17,29-30H,2-5,9-10H2,1H3,(H,33,34,35);/q;+1/p-1",OOGKHVOWEZVKKU-UHFFFAOYSA-M,[Na+].CCOc1cccc2C(=O)c3c(Nc4ccccc4[S]([O-])(=O)=O)ccc(NC5CCCCC5)c3C(=O)c12,-1.987836786,0.0,1.0,G1,542.589,2.257,139.1016,38.0,8.0,2.0,10.0,7.0,192.0,3.0,1.0,2.0,5.0,124.63,243.7616998,3.36e-06,1499.173766
8679,D-2063,sulindac,"InChI=1S/C20H17FO3S/c1-12-17(9-13-3-6-15(7-4-13)25(2)24)16-8-5-14(21)10-19(16)18(12)11-20(22)23/h3-10H,11H2,1-2H3,(H,22,23)/b17-9-",MLKXDPUZXIRXEP-MFOYZWKCSA-N,CC\1=C(CC(O)=O)c2cc(F)ccc2C1=C\c3ccc(cc3)[S](C)=O,-4.552,0.224,2.0,G3,356.418,4.3655,97.8922,25.0,2.0,1.0,5.0,4.0,128.0,2.0,0.0,1.0,3.0,54.37,147.5185425,2.101112058,939.9136691
741,A-1291,sodium 3-[(E)-2-[4-(phenylamino)phenyl]diazen-1-yl]benzene-1-sulfonate,"InChI=1S/C18H15N3O3S.Na/c22-25(23,24)18-8-4-7-17(13-18)21-20-16-11-9-15(10-12-16)19-14-5-2-1-3-6-14;/h1-13,19H,(H,22,23,24);/q;+1/p-1",NYGZLYXAPMMJTE-UHFFFAOYSA-M,[Na+].[O-][S](=O)(=O)c1cccc(c1)N=Nc2ccc(Nc3ccccc3)cc2,-1.204686091,0.0,1.0,G1,375.385,1.7537,94.7479,26.0,6.0,1.0,8.0,5.0,126.0,3.0,0.0,0.0,3.0,93.95,173.5842672,2.43e-06,991.7046088
9312,F-645,2-phenylsulfonylpropanamide,"InChI=1S/C9H11NO3S/c1-7(9(10)11)14(12,13)8-5-3-2-4-6-8/h2-7H,1H3,(H2,10,11)",SFNCEGFOAIRTAL-UHFFFAOYSA-N,CC(C(N)=O)S(=O)(=O)C1=CC=CC=C1,-1.64,0.0,1.0,G1,213.258,0.3341,52.2842,14.0,3.0,1.0,5.0,3.0,76.0,1.0,0.0,0.0,1.0,77.23,82.65304064,3.162187481,424.6301058
3970,B-509,1-butyne,"InChI=1S/C4H6/c1-3-4-2/h1H,4H2,2H3",KDKYADYSIPSCCQ-UHFFFAOYSA-N,CCC#C,-1.2753,0.01765,2.0,G3,54.092,1.0296,19.124,4.0,0.0,0.0,0.0,0.0,22.0,0.0,0.0,0.0,0.0,0.0,26.83330276,2.43309631,29.7931939
903,A-1553,"tris(1,3-dichloropropan-2-yl) phosphate","InChI=1S/C9H15Cl6O4P/c10-1-7(2-11)17-20(16,18-8(3-12)4-13)19-9(5-14)6-15/h7-9H,1-6H2",ASLWPAWFJZFCKF-UHFFFAOYSA-N,ClCC(CCl)O[P](=O)(OC(CCl)CCl)OC(CCl)CCl,-4.376704974,0.206290267,2.0,G3,430.907,4.6829,86.5455,20.0,4.0,0.0,11.0,12.0,122.0,0.0,0.0,0.0,0.0,44.76,148.3686317,4.947205148,242.81735
7068,B-4441,n4-acetylsulfanilamide,"InChI=1S/C8H10N2O3S/c1-6(11)10-7-2-4-8(5-3-7)14(9,12)13/h2-5H,1H3,(H,10,11)(H2,9,12,13)",PKOFBDHYTMYVGJ-UHFFFAOYSA-N,CC(=O)Nc1ccc(cc1)[S](N)(=O)=O,-1.6066,0.3017,2.0,G3,214.246,0.2924,52.1189,14.0,3.0,2.0,6.0,2.0,76.0,1.0,0.0,0.0,1.0,89.26,81.97333822,2.951896247,436.1591255
7820,C-1558,3-bromocrotonic  acid (trans);  3-bromo-(e)-2-butenoic acid,"InChI=1S/C4H5BrO2/c1-3(5)2-4(6)7/h2H,1H3,(H,6,7)/b3-2-",JFQJADVATLPJRF-IHWYPQMZSA-N,C\C(Br)=C\C(O)=O,-0.6,0.0,1.0,G1,164.986,1.3697,30.3198,7.0,1.0,1.0,3.0,1.0,40.0,0.0,0.0,0.0,0.0,37.3,49.9677778,3.679228032,102.2574223
9233,F-540,2-(phenyl-(phenylmethylsulfanylcarbothioyl)amino)acetic acid,"InChI=1S/C16H15NO2S2/c18-15(19)11-17(14-9-5-2-6-10-14)16(20)21-12-13-7-3-1-4-8-13/h1-10H,11-12H2,(H,18,19)",QJYFZGZQJOGQTO-UHFFFAOYSA-N,O=C(O)CN(C(=S)SCC1=CC=CC=C1)C1=CC=CC=C1,-3.92,0.0,1.0,G1,317.435,3.7959,91.7588,21.0,3.0,1.0,5.0,5.0,108.0,2.0,0.0,0.0,2.0,40.54,133.1457456,2.060336987,602.1887457
6150,B-3107,fenitropan,"InChI=1S/C13H15NO6/c1-9(15)19-8-12(14(17)18)13(20-10(2)16)11-6-4-3-5-7-11/h3-7,12-13H,8H2,1-2H3/t12-,13+/m1/s1",AYBALPYBYZFKDS-OLZOCXBDSA-N,CC(=O)OC[C@H]([C@@H](OC(C)=O)c1ccccc1)[N+]([O-])=O,-3.972,0.0,1.0,G1,281.264,1.4992,68.3644,20.0,6.0,0.0,7.0,6.0,108.0,1.0,0.0,0.0,1.0,95.74,115.1891083,3.014435409,486.8945651
7074,B-4451,isosorbide dinitrate,"InChI=1S/C6H8N2O8/c9-7(10)15-3-1-13-6-4(16-8(11)12)2-14-5(3)6/h3-6H,1-2H2/t3-,4+,5-,6-/m1/s1",MOYKHGMNXAOIAT-JGWLITMVSA-N,[O-][N+](=O)O[C@H]1CO[C@@H]2[C@@H](CO[C@H]12)O[N+]([O-])=O,-2.6328,0.0,1.0,G1,236.136,-1.0622,43.2148,16.0,8.0,0.0,10.0,4.0,90.0,0.0,2.0,2.0,2.0,123.2,88.22050865,1.948118235,278.9036607
8078,C-1987,1-butanoylallopurinol,"InChI=1S/C9H10N4O2/c1-2-3-7(14)13-8-6(4-12-13)9(15)11-5-10-8/h4-5H,2-3H2,1H3,(H,10,11,15)",ABLLZVRKYUXMHV-UHFFFAOYSA-N,CCCC(=O)[N]1N=CC2=C1N=CNC2=O,-3.27,0.0,1.0,G1,206.205,0.5599,53.6832,15.0,5.0,1.0,6.0,2.0,78.0,2.0,0.0,0.0,2.0,80.64,84.94240973,2.590099975,554.4828406
2223,A-3678,"2,5-dihydrofuran-2,5-dione",InChI=1S/C4H2O3/c5-3-1-2-4(6)7-3/h1-2H,FPYJFEHAWHCUMM-UHFFFAOYSA-N,O=C1OC(=O)C=C1,0.618115807,0.005790936,2.0,G3,98.057,-0.374,20.239,7.0,3.0,0.0,3.0,0.0,36.0,0.0,0.0,1.0,1.0,43.37,39.57523261,2.759543614,129.013897
7347,C-499,lovastatin,"InChI=1S/C24H36O5/c1-5-15(3)24(27)29-21-11-14(2)10-17-7-6-16(4)20(23(17)21)9-8-19-12-18(25)13-22(26)28-19/h6-7,10,14-16,18-21,23,25H,5,8-9,11-13H2,1-4H3",PCZOHLXUXFIOCF-UHFFFAOYSA-N,CCC(C)C(=O)OC1CC(C)C=C2C=CC(C)C(CCC3CC(O)CC(=O)O3)C12,-6.01,0.0,1.0,G1,404.547,4.1955,110.8378,29.0,5.0,1.0,5.0,6.0,162.0,0.0,1.0,3.0,3.0,72.83,174.0805885,1.74016958,666.18217
5783,B-2694,ethychlozate,"InChI=1S/C11H11ClN2O2/c1-2-16-11(15)6-10-8-5-7(12)3-4-9(8)13-14-10/h3-5H,2,6H2,1H3,(H,13,14)",GLPZEHFBLBYFHN-UHFFFAOYSA-N,CCOC(=O)Cc1[nH]nc2ccc(Cl)cc12,-3.0256,0.0,1.0,G1,238.674,2.3219,61.4407,16.0,3.0,1.0,5.0,3.0,84.0,2.0,0.0,0.0,2.0,54.98,97.54843164,2.303660724,521.6789616
2079,A-3433,"2,2-dimethyloxirane","InChI=1S/C4H8O/c1-4(2)3-5-4/h3H2,1-2H3",GELKGHVAFRCJNA-UHFFFAOYSA-N,CC1(C)CO1,-0.094549434,0.0,1.0,G1,72.107,0.7952,20.031,5.0,1.0,0.0,1.0,0.0,30.0,0.0,1.0,1.0,1.0,12.53,31.94179145,2.382198575,41.60964047
8645,D-1807,5-nonanol,"InChI=1S/C9H20O/c1-3-5-7-9(10)8-6-4-2/h9-10H,3-8H2,1-2H3",FCBBRODPXVPZAH-UHFFFAOYSA-N,CCCCC(O)CCCC,-2.49,0.0,1.0,G1,144.258,2.7277,45.0568,10.0,1.0,1.0,1.0,6.0,62.0,0.0,0.0,0.0,0.0,20.23,64.4530217,2.998419094,53.74860596
9016,F-160,hydroxy-[3-[hydroxy(oxo)azaniumyl]oxybutan-2-yloxy]-oxoazanium,"InChI=1S/C4H10N2O6/c1-3(11-5(7)8)4(2)12-6(9)10/h3-4H,1-2H3,(H,7,8)(H,9,10)/q+2",NRIAWHNANBCNBY-UHFFFAOYSA-N,CC(C(C)O[N+](=O)O)O[N+](=O)O,-1.89,0.0,1.0,G1,182.132,-0.0372,31.9218,12.0,4.0,2.0,8.0,5.0,70.0,0.0,0.0,0.0,0.0,99.08,67.27519627,3.833659161,162.3868988
8798,E-727,nimetazepam,"InChI=1S/C16H13N3O3/c1-18-14-8-7-12(19(21)22)9-13(14)16(17-10-15(18)20)11-5-3-2-4-6-11/h2-9H,10H2,1H3",GWUSZQUVEVMBPI-UHFFFAOYSA-N,c1c(N(=O)(=O))cc2C(c3ccccc3)=NCC(=O)N(C)c2c1,-3.8,0.0,1.0,G1,295.298,2.4086,83.4544,22.0,4.0,0.0,6.0,2.0,110.0,2.0,0.0,1.0,3.0,75.81,126.4120886,2.240333764,784.4779699
2220,A-3673,(2S)-2-amino-4-carbamoylbutanoic acid,"InChI=1S/C5H10N2O3/c6-3(5(9)10)1-2-4(7)8/h3H,1-2,6H2,(H2,7,8)(H,9,10)/t3-/m0/s1",ZDXPYRJPNDTMRX-VKHMYHEASA-N,N[C@@H](CCC(N)=O)C(O)=O,-0.548311419,0.031782032,2.0,G3,146.146,-1.3362,34.0396,10.0,3.0,3.0,5.0,4.0,58.0,0.0,0.0,0.0,0.0,106.41,57.99607883,3.49072966,145.8284896
8393,C-2454,bumetanide,"InChI=1S/C17H20N2O5S/c1-2-3-9-19-14-10-12(17(20)21)11-15(25(18,22)23)16(14)24-13-7-5-4-6-8-13/h4-8,10-11,19H,2-3,9H2,1H3,(H,20,21)(H2,18,22,23)",MAEIEVLCKWDQJH-UHFFFAOYSA-N,CCCCNC1=C(OC2=CC=CC=C2)C(=CC(=C1)C(O)=O)[S](N)(=O)=O,-3.56,0.0,1.0,G1,364.423,3.0365,94.6882,25.0,5.0,3.0,8.0,8.0,134.0,2.0,0.0,0.0,2.0,118.72,146.0330378,2.591803586,850.8419702
2209,A-3653,(3-{[3-(dimethylamino)propyl]amino}propyl)dimethylamine,"InChI=1S/C10H25N3/c1-12(2)9-5-7-11-8-6-10-13(3)4/h11H,5-10H2,1-4H3",BXYVQNNEFZOBOZ-UHFFFAOYSA-N,CN(C)CCCNCCCN(C)C,0.355850804,0.156276894,2.0,G3,187.331,0.4794,59.2117,13.0,3.0,1.0,3.0,8.0,80.0,0.0,0.0,0.0,0.0,18.51,83.09325958,2.916362187,90.34298056
8972,F-81,phenothiazin-3-one,InChI=1S/C12H7NOS/c14-8-5-6-10-12(7-8)15-11-4-2-1-3-9(11)13-10/h1-7H,YKGCCFHSXQHWIG-UHFFFAOYSA-N,O=C1C=CC2=NC3=C(C=CC=C3)SC2=C1,-3.72,0.0,1.0,G1,213.261,2.7613,62.512,15.0,3.0,0.0,3.0,0.0,72.0,1.0,0.0,2.0,3.0,29.96,90.18120765,2.491646917,659.1254784
3004,A-5032,4-[(4-amino-3-methylphenyl)methyl]-2-methylaniline,"InChI=1S/C15H18N2/c1-10-7-12(3-5-14(10)16)9-13-4-6-15(17)11(2)8-13/h3-8H,9,16-17H2,1-2H3",WECDUOXQLAIPQW-UHFFFAOYSA-N,Cc1cc(Cc2ccc(N)c(C)c2)ccc1N,-4.150608709,0.0,1.0,G1,226.323,3.05864,73.9888,17.0,2.0,2.0,2.0,2.0,88.0,2.0,0.0,0.0,2.0,52.04,102.2631051,2.249182293,495.1132378
1884,A-3089,2-[(2-hydroxyethyl)amino]ethan-1-ol,"InChI=1S/C4H11NO2/c6-3-1-5-2-4-7/h5-7H,1-4H2",ZBCBWPMODOFKDW-UHFFFAOYSA-N,OCCNCCO,0.957792794,0.010203603,2.0,G3,105.137,-1.4394,27.0413,7.0,3.0,3.0,3.0,4.0,44.0,0.0,0.0,0.0,0.0,52.49,42.97240706,2.447472888,28.8707654
8224,C-2201,flumequine,"InChI=1S/C14H12FNO3/c1-7-2-3-8-4-9(15)5-10-12(8)16(7)6-11(13(10)17)14(18)19/h4-7H,2-3H2,1H3,(H,18,19)",DPSPPJIUMHPXMA-UHFFFAOYSA-N,CC1CCC2=CC(=CC3=C2N1C=C(C(O)=O)C3=O)F,-3.74,0.005,2.0,G3,261.252,2.346,68.1573,19.0,3.0,1.0,5.0,1.0,98.0,2.0,0.0,1.0,3.0,59.3,107.6443799,2.534425297,763.3556201
9415,F-771,"5,5-diethyl-4,6-dioxo-1H-pyrimidin-2-olate","InChI=1S/C8H12N2O3/c1-3-8(4-2)5(11)9-7(13)10-6(8)12/h3-4H2,1-2H3,(H2,9,10,11,12,13)/p-1",FTOAOBMCPZCFFF-UHFFFAOYSA-M,CCC1(C(=O)NC(=NC1=O)[O-])CC,-0.07,0.0,1.0,G1,183.187,-0.8345,43.5997,13.0,3.0,1.0,5.0,2.0,72.0,0.0,0.0,1.0,1.0,81.59,75.8504773,3.105296722,279.1137266
8809,E-764,"4,5,7-Trichloro-2,1,3-benzothiadiazole",InChI=1S/C6HCl3N2S/c7-2-1-3(8)5-6(4(2)9)11-12-10-5/h1H,SZYWFOPNFNROQB-UHFFFAOYSA-N,c1c(Cl)c(Cl)c2nsnc2c1Cl,-4.98,0.0,1.0,G1,239.514,3.6515,52.445,12.0,3.0,0.0,6.0,0.0,62.0,2.0,0.0,0.0,2.0,25.78,87.38470554,2.968394218,439.5309728
6834,B-4091,"2,3',4,4'-tetrachlorobiphenyl",InChI=1S/C12H6Cl4/c13-8-2-3-9(11(15)6-8)7-1-4-10(14)12(16)5-7/h1-6H,RKLLTEAEZIJBAU-UHFFFAOYSA-N,Clc1ccc(c(Cl)c1)c2ccc(Cl)c(Cl)c2,-6.8995,0.45025,2.0,G3,291.992,5.9672,71.918,16.0,0.0,0.0,4.0,1.0,82.0,2.0,0.0,0.0,2.0,0.0,113.7015622,2.54314062,534.5371241
2239,A-3712,"4-amino-N-tert-butyl-5-oxo-3-(propan-2-yl)-4,5-dihydro-1H-1,2,4-triazole-1-carboxamide","InChI=1S/C10H19N5O2/c1-6(2)7-13-15(9(17)14(7)11)8(16)12-10(3,4)5/h6H,11H2,1-5H3,(H,12,16)",ORFPWVRKFLOQHK-UHFFFAOYSA-N,CC(C)C1=NN(C(=O)NC(C)(C)C)C(=O)N1N,-1.718847397,0.008861832,3.0,G5,241.295,0.2382,64.4091,17.0,6.0,2.0,7.0,1.0,96.0,1.0,0.0,0.0,1.0,94.94,99.57072606,3.123709495,477.8661896
6842,B-4106,hexabromobiphenyl,InChI=1S/C12H4Br6/c13-7-3-1-5(9(15)11(7)17)6-2-4-8(14)12(18)10(6)16/h1-4H,PTJQVJQAZSLKJO-UHFFFAOYSA-N,Brc1ccc(c(Br)c1Br)c2ccc(Br)c(Br)c2Br,-7.7563,0.0,1.0,G1,627.588,7.9286,98.078,18.0,0.0,0.0,6.0,1.0,94.0,2.0,0.0,0.0,2.0,0.0,155.693783,2.70655143,564.9500799
4413,B-1117,2-methylpropyl propanoate,"InChI=1S/C7H14O2/c1-4-7(8)9-5-6(2)3/h6H,4-5H2,1-3H3",FZXRXKLUIMKDEL-UHFFFAOYSA-N,CCC(=O)OCC(C)C,-1.8841,0.0,1.0,G1,130.187,1.5956,36.088,9.0,2.0,0.0,2.0,3.0,54.0,0.0,0.0,0.0,0.0,26.3,56.20397104,3.168818865,86.91694058
2035,A-3358,sodium 4(or 5)-methyl-1H-benzotriazolide,"InChI=1S/C7H6N3.Na/c1-5-3-2-4-6-7(5)9-10-8-6;/h2-4H,1H3;/q-1;+1",REERYFLJRPUSHT-UHFFFAOYSA-N,[Na+].Cc1cccc2n[n-]nc12,0.605167428,0.0,1.0,G1,155.136,-2.10058,37.595,11.0,2.0,0.0,4.0,0.0,50.0,2.0,0.0,0.0,2.0,39.88,86.47677291,6.05e-07,355.2131728
7373,C-583,n-phenylanthranilic  acid;  fenamic  acid,"InChI=1S/C13H11NO2/c15-13(16)11-8-4-5-9-12(11)14-10-6-2-1-3-7-10/h1-9,14H,(H,15,16)",ZWJINEZUASEZBH-UHFFFAOYSA-N,OC(=O)C1=CC=CC=C1NC2=CC=CC=C2,-4.96,0.0,1.0,G1,213.236,3.1284,63.126,16.0,2.0,2.0,3.0,3.0,80.0,2.0,0.0,0.0,2.0,49.33,93.35905748,2.314817219,494.2955977
2837,A-4743,"3,5,5-trimethylhexanoic acid","InChI=1S/C9H18O2/c1-7(5-8(10)11)6-9(2,3)4/h7H,5-6H2,1-4H3,(H,10,11)",OILUAKBAMVLXGF-UHFFFAOYSA-N,CC(CC(O)=O)CC(C)(C)C,-2.354220979,0.0,1.0,G1,158.241,2.5334,45.4888,11.0,1.0,1.0,2.0,3.0,66.0,0.0,0.0,0.0,0.0,37.3,68.6145438,3.694259125,132.9883844
9380,F-723,1-(trifluoromethyl)acridin-9-amine,"InChI=1S/C14H9F3N2/c15-14(16,17)9-5-3-7-11-12(9)13(18)8-4-1-2-6-10(8)19-11/h1-7H,(H2,18,19)",GAWKHTAHYFTCHE-UHFFFAOYSA-N,NC1=C2C=CC=CC2=NC2=CC=CC(C(F)(F)F)=C21,-2.48,0.0,1.0,G1,262.234,3.989,68.6634,19.0,2.0,1.0,5.0,0.0,96.0,3.0,0.0,0.0,3.0,38.91,106.2158192,2.528568498,778.5822594
9529,F-910,4-[3-[(propan-2-ylamino)methyl]phenyl]sulfonylthiophene-2-sulfonamide,"InChI=1S/C14H18N2O4S3/c1-10(2)16-8-11-4-3-5-12(6-11)22(17,18)13-7-14(21-9-13)23(15,19)20/h3-7,9-10,16H,8H2,1-2H3,(H2,15,19,20)",YZGNQQGKNDGUQL-UHFFFAOYSA-N,CC(C)NCC1=CC=CC(S(=O)(=O)C2=CSC(S(N)(=O)=O)=C2)=C1,-1.56,0.0,1.0,G1,374.509,1.7263,89.5617,23.0,6.0,2.0,9.0,6.0,126.0,2.0,0.0,0.0,2.0,106.33,139.8645562,2.362130054,899.6085276
8969,F-73,ethyl 2-sulfanylidene-1~{H}-pyrimidine-5-carboxylate,"InChI=1S/C7H8N2O2S/c1-2-11-6(10)5-3-8-7(12)9-4-5/h3-4H,2H2,1H3,(H,8,9,12)",XNHZQTRMBMPMTM-UHFFFAOYSA-N,CCOC(=O)C1=CNC(=S)N=C1,-1.74,0.0,1.0,G1,184.22,1.31589,45.3782,12.0,4.0,1.0,5.0,2.0,64.0,1.0,0.0,0.0,1.0,54.98,74.599373,2.822717164,313.9283027
9600,F-1056,2-hydroxyethyl 2-(6-methoxynaphthalen-2-yl)propanoate,"InChI=1S/C16H18O4/c1-11(16(18)20-8-7-17)12-3-4-14-10-15(19-2)6-5-13(14)9-12/h3-6,9-11,17H,7-8H2,1-2H3",NYYKRAQUHNVACN-UHFFFAOYSA-N,COC1=CC=C2C=C(C(C)C(=O)OCCO)C=CC2=C1,-3.33,0.0,1.0,G1,274.316,2.4874,76.9598,20.0,4.0,1.0,4.0,5.0,106.0,2.0,0.0,0.0,2.0,55.76,117.4855666,2.246448629,606.4484036
8730,E-307,1-hexen-3-one,"InChI=1S/C6H10O/c1-3-5-6(7)4-2/h4H,2-3,5H2,1H3",JTHNLKXLWOXOQK-UHFFFAOYSA-N,O=C(C=C)CCC,-0.83,0.0,1.0,G1,98.145,1.5416,30.112,7.0,1.0,0.0,1.0,3.0,40.0,0.0,0.0,0.0,0.0,17.07,44.03588067,3.172899534,74.24920506
5450,B-2314,"benzenemethanol, 3,4,5-trichloro-","InChI=1S/C7H5Cl3O/c8-5-1-4(3-11)2-6(9)7(5)10/h1-2,11H,3H2",HZKGTRUEBFRMNO-UHFFFAOYSA-N,OCc1cc(Cl)c(Cl)c(Cl)c1,-3.0948,0.0,1.0,G1,211.475,3.1391,47.3948,11.0,1.0,1.0,4.0,1.0,60.0,1.0,0.0,0.0,1.0,20.23,79.50037767,3.20556545,249.3833506
9541,F-944,"1-[(2,4-dichlorophenyl)methyl]-5-fluoropyrimidine-2,4-dione","InChI=1S/C11H7Cl2FN2O2/c12-7-2-1-6(8(13)3-7)4-16-5-9(14)10(17)15-11(16)18/h1-3,5H,4H2,(H,15,17,18)",MHPNFFUAVWCYBQ-UHFFFAOYSA-N,O=C1NC(=O)N(CC2=C(Cl)C=C(Cl)C=C2)C=C1F,-3.94,0.0,1.0,G1,289.093,2.0308,66.8447,18.0,3.0,1.0,7.0,2.0,94.0,2.0,0.0,0.0,2.0,54.86,110.5978189,2.430526504,708.9198926
6712,B-3855,"1,3-dichloropropane",InChI=1S/C3H6Cl2/c4-2-1-3-5/h1-3H2,YHRUOJUYPBUZOS-UHFFFAOYSA-N,ClCCCCl,-1.6137,0.0,1.0,G1,112.987,1.8541,26.057,5.0,0.0,0.0,2.0,2.0,32.0,0.0,0.0,0.0,0.0,0.0,42.07566771,2.190609687,12.36452798
8856,E-927,"2-Phenyl-3,1-benzoxazin-4-one",InChI=1S/C14H9NO2/c16-13-11-8-4-5-9-12(11)17-14(15-13)10-6-2-1-3-7-10/h1-9H,GWDYJKXSUSPLEA-UHFFFAOYSA-N,c1ccc2C(=O)N=C(c3ccccc3)Oc2c1,-4.61,0.0,1.0,G1,223.231,2.855,65.715,17.0,3.0,0.0,3.0,1.0,82.0,3.0,0.0,0.0,3.0,43.1,97.35614876,2.299992357,716.8737735
2701,A-4520,3-(dimethylamino)propan-1-ol,"InChI=1S/C5H13NO/c1-6(2)4-3-5-7/h7H,3-5H2,1-2H3",PYSGFFTXMUWEOT-UHFFFAOYSA-N,CN(C)CCCO,0.986467618,0.0,1.0,G1,103.165,-0.0696,30.2568,7.0,2.0,1.0,2.0,3.0,44.0,0.0,0.0,0.0,0.0,23.47,44.75308691,2.678257743,37.06139399
1130,A-1940,"5-chloro-2-(2,4-dichlorophenoxy)phenol","InChI=1S/C12H7Cl3O2/c13-7-1-3-11(9(15)5-7)17-12-4-2-8(14)6-10(12)16/h1-6,16H",XEFQLINVKFYRCS-UHFFFAOYSA-N,Oc1cc(Cl)ccc1Oc2ccc(Cl)cc2Cl,-4.46171607,0.101243951,4.0,G5,289.545,5.1447,69.6528,17.0,2.0,1.0,5.0,2.0,88.0,2.0,0.0,0.0,2.0,29.46,113.306075,2.312237835,505.9421592
2482,A-4152,"2-methyl-4-phenyl-1,3-dioxolane","InChI=1S/C10H12O2/c1-8-11-7-10(12-8)9-5-3-2-4-6-9/h2-6,8,10H,7H2,1H3",YPPGSWWESBCSCT-UHFFFAOYSA-N,CC1OCC(O1)c2ccccc2,-1.805450609,0.0,1.0,G1,164.204,2.1205,45.682,12.0,2.0,0.0,2.0,1.0,64.0,1.0,1.0,1.0,2.0,18.46,72.11243088,2.113241499,245.275309
744,A-1294,1-{[bis(2-chloroethoxy)phosphoryl]oxy}-2-({[bis(2-chloroethoxy)phosphoryl]oxy}methyl)-3-chloro-2-(chloromethyl)propane,"InChI=1S/C13H24Cl6O8P2/c14-1-5-22-28(20,23-6-2-15)26-11-13(9-18,10-19)12-27-29(21,24-7-3-16)25-8-4-17/h1-12H2",ZGHUDSLVQAGWEY-UHFFFAOYSA-N,ClCCO[P](=O)(OCCCl)OCC(CCl)(CCl)CO[P](=O)(OCCCl)OCCCl,-3.400175355,0.0,1.0,G1,582.993,5.7214,117.678,29.0,8.0,0.0,16.0,20.0,176.0,0.0,0.0,0.0,0.0,89.52,200.7186465,5.155587644,449.69594
8549,D-1081,disperse red 9,"InChI=1S/C15H11NO2/c1-16-12-8-4-7-11-13(12)15(18)10-6-3-2-5-9(10)14(11)17/h2-8,16H,1H3",SVTDYSXXLJYUTM-UHFFFAOYSA-N,CNc1cccc2C(=O)c3ccccc3C(=O)c12,-6.3,0.01691409,2.0,G3,237.258,2.5037,69.2957,18.0,3.0,1.0,3.0,1.0,88.0,2.0,0.0,1.0,3.0,46.17,104.4503989,2.338877865,673.9438611
2850,A-4768,"(1S-endo)-1,7,7-trimethylbicyclo[2.2.1]heptan-2-ol","InChI=1S/C10H18O/c1-9(2)7-4-5-10(9,3)8(11)6-7/h7-8,11H,4-6H2,1-3H3/t7-,8-,10-/m1/s1",DTGKSKDOIYIVQL-NQMVMOMDSA-N,CC1(C)[C@@H]2CC[C@]1(C)[C@H](O)C2,-2.420558395,0.0,1.0,G1,154.253,2.1935,45.2358,11.0,1.0,1.0,1.0,0.0,64.0,0.0,2.0,2.0,2.0,20.23,68.8063015,2.396254979,185.3117986
327,A-553,cyclohexyl 2-hydroxybenzoate,"InChI=1S/C13H16O3/c14-12-9-5-4-8-11(12)13(15)16-10-6-2-1-3-7-10/h4-5,8-10,14H,1-3,6-7H2",NUQDJSMHGCTKNL-UHFFFAOYSA-N,Oc1ccccc1C(=O)OC2CCCCC2,-4.554076293,0.032299623,2.0,G3,220.268,2.8817,60.3953,16.0,3.0,1.0,3.0,2.0,86.0,1.0,1.0,1.0,2.0,46.53,95.04946785,1.995397772,367.1953854
3621,A-6055,"triethoxy(2,4,4-trimethylpentyl)silane","InChI=1S/C14H32O3Si/c1-8-15-18(16-9-2,17-10-3)12-13(4)11-14(5,6)7/h13H,8-12H2,1-7H3",UWZSHGZRSZICIW-UHFFFAOYSA-N,CCO[Si](CC(C)CC(C)(C)C)(OCC)OCC,-6.441684141,0.0,1.0,G1,276.493,4.1071,78.675,18.0,3.0,0.0,4.0,9.0,110.0,0.0,0.0,0.0,0.0,27.69,114.575107,4.629200103,196.5553186