,ID,Name,InChI,InChIKey,SMILES,Solubility,SD,Ocurrences,Group,MolWt,MolLogP,MolMR,HeavyAtomCount,NumHAcceptors,NumHDonors,NumHeteroatoms,NumRotatableBonds,NumValenceElectrons,NumAromaticRings,NumSaturatedRings,NumAliphaticRings,RingCount,TPSA,LabuteASA,BalabanJ,BertzCT
8681,D-2069,hydroprene,"InChI=1S/C17H30O2/c1-6-19-17(18)13-16(5)12-8-11-15(4)10-7-9-14(2)3/h8,12-15H,6-7,9-11H2,1-5H3/b12-8+,16-13+",FYQGBXGJFWXIPP-UEVLXMDPSA-N,CCOC(=O)\C=C(C)\C=C\CC(C)CCCC(C)C,-5.693,0.2842,2.0,G3,266.425,4.9045,82.0,19.0,2.0,0.0,2.0,9.0,110.0,0.0,0.0,0.0,0.0,26.3,118.4741861,3.901709221,300.3839257
1694,A-2802,"2-(diphenyl-1,3,5-triazin-2-yl)-5-(hexyloxy)phenol","InChI=1S/C27H27N3O2/c1-2-3-4-11-18-32-22-16-17-23(24(31)19-22)27-29-25(20-12-7-5-8-13-20)28-26(30-27)21-14-9-6-10-15-21/h5-10,12-17,19,31H,2-4,11,18H2,1H3",LEVFXWNQQSSNAC-UHFFFAOYSA-N,CCCCCCOc1ccc(c(O)c1)c2nc(nc(n2)c3ccccc3)c4ccccc4,-9.15181097,0.0,1.0,G1,425.532,6.5373,127.4368,32.0,5.0,1.0,5.0,9.0,162.0,4.0,0.0,0.0,4.0,68.13,188.3590613,1.664155868,1090.416976
8532,D-296,"azinphos-ethyl, o-analog","InChI=1S/C12H16N3O4PS/c1-3-18-20(17,19-4-2)21-9-15-12(16)10-7-5-6-8-11(10)13-14-15/h5-8H,3-4,9H2,1-2H3",ZADDJRKYRQDYKM-UHFFFAOYSA-N,CCO[P](=O)(OCC)SCN1N=Nc2ccccc2C1=O,-1.993,0.0,1.0,G1,329.318,2.6633,82.2475,21.0,8.0,0.0,9.0,7.0,114.0,2.0,0.0,0.0,2.0,83.31,125.4668484,2.217786046,710.9599108
6283,B-3255,diafenthiuron,"InChI=1S/C23H32N2OS/c1-15(2)19-13-18(26-17-11-9-8-10-12-17)14-20(16(3)4)21(19)24-22(27)25-23(5,6)7/h8-16H,1-7H3,(H2,24,25,27)",WOWBFOBYOAGEEA-UHFFFAOYSA-N,CC(C)c1cc(Oc2ccccc2)cc(C(C)C)c1NC(=S)NC(C)(C)C,-6.8068,0.0,1.0,G1,384.589,6.8106,120.2454,27.0,2.0,2.0,4.0,5.0,146.0,2.0,0.0,0.0,2.0,33.29,169.0749104,2.435098234,747.7056244
9094,F-296,"(5~{Z})-5-[(3,4-dihydroxyphenyl)methylidene]-2-sulfanylidene-1,3-thiazolidin-4-one","InChI=1S/C10H7NO3S2/c12-6-2-1-5(3-7(6)13)4-8-9(14)11-10(15)16-8/h1-4,12-13H,(H,11,14,15)",WVCFNVNKWVWZFT-UHFFFAOYSA-N,O=C1NC(=S)SC1=CC1=CC(O)=C(O)C=C1,-3.34,0.0,1.0,G1,253.304,1.5866,66.0803,16.0,5.0,3.0,6.0,1.0,82.0,1.0,1.0,1.0,2.0,69.56,100.9774795,2.32438984,510.7856479
7968,C-1827,"chlormethiuron;  3-(4-chloro-2-methylphenyl)-1,3-dimethylthiourea","InChI=1S/C10H13ClN2S/c1-7-6-8(11)4-5-9(7)13(3)10(14)12-2/h4-6H,1-3H3,(H,12,14)",WELPARMRIRIBMB-UHFFFAOYSA-N,CNC(=S)N(C)C1=C(C)C=C(Cl)C=C1,-3.66,0.0,1.0,G1,228.748,2.58892,66.2497,14.0,1.0,1.0,4.0,1.0,76.0,1.0,0.0,0.0,1.0,15.27,94.8629139,3.010872114,351.9752769
8610,D-1627,"ethene, (2,2,2-trifluoroethoxy)-","InChI=1S/C4H5F3O/c1-2-8-3-4(5,6)7/h2H,1,3H2",DLEGDLSLRSOURQ-UHFFFAOYSA-N,FC(F)(F)COC=C,-1.478,0.0,1.0,G1,126.077,1.7088,22.204,8.0,1.0,0.0,4.0,2.0,48.0,0.0,0.0,0.0,0.0,9.23,44.75462578,3.239280745,75.8428331
5977,B-2913,Vx agent,"InChI=1S/C11H26NO2PS/c1-7-14-15(6,13)16-9-8-12(10(2)3)11(4)5/h10-11H,7-9H2,1-6H3",JJIUCEJQJXNMHV-UHFFFAOYSA-N,CCO[P](C)(=O)SCCN(C(C)C)C(C)C,-0.95,0.0,1.0,G1,267.375,3.6978,74.5925,16.0,4.0,0.0,5.0,8.0,98.0,0.0,0.0,0.0,0.0,29.54,104.5100159,3.996285049,226.0244522
6683,B-3794,benzyl alcohol,"InChI=1S/C7H8O/c8-6-7-4-2-1-3-5-7/h1-5,8H,6H2",WVDDGKGOMKODPV-UHFFFAOYSA-N,OCc1ccccc1,-0.4319,0.01595,2.0,G3,108.14,1.1789,32.3648,8.0,1.0,1.0,1.0,1.0,42.0,1.0,0.0,0.0,1.0,20.23,48.59057899,2.832085835,145.7328145
9845,G-1036,RTI 16,"InChI=1S/C14H14N4S/c1-3-18-12-10(6-4-8-15-12)14(19)17(2)11-7-5-9-16-13(11)18/h4-9H,3H2,1-2H3",YNARWAUTTJJADX-UHFFFAOYSA-N,CCN2c1ncccc1N(C)C(=S)c3cccnc23 ,-4.634,0.0,1.0,G1,270.361,2.7599,81.257,19.0,4.0,0.0,5.0,1.0,96.0,2.0,0.0,1.0,3.0,32.26,117.2601782,2.314459899,640.8480203
816,A-1417,trizinc(2+) ion diphosphate,"InChI=1S/2H3O4P.3Zn/c2*1-5(2,3)4;;;/h2*(H3,1,2,3,4);;;/q;;3*+2/p-6",LRXTYHSAJDENHV-UHFFFAOYSA-H,[Zn++].[Zn++].[Zn++].[O-][P]([O-])([O-])=O.[O-][P]([O-])([O-])=O,-5.155347286,0.0,1.0,G1,386.11,-5.6567,15.213,13.0,8.0,0.0,13.0,0.0,64.0,0.0,0.0,0.0,0.0,172.5,111.8947481,-2.67e-08,129.6986276
5260,B-2100,"propanoic acid, 2,2'-dithiobis-","InChI=1S/C6H10O4S2/c7-5(8)1-3-11-12-4-2-6(9)10/h1-4H2,(H,7,8)(H,9,10)",YCLSOMLVSHPPFV-UHFFFAOYSA-N,OC(=O)CCSSCCC(O)=O,-0.9301,0.36785,2.0,G3,210.276,1.3172,49.4216,12.0,4.0,2.0,6.0,7.0,70.0,0.0,0.0,0.0,0.0,74.6,78.12165544,3.007305636,141.6270751
3148,A-5228,Chromium acetate,"InChI=1S/C2H4O2.Cr/c1-2(3)4;/h1H3,(H,3,4);/p-1",YETKGQMGLZKKGE-UHFFFAOYSA-M,[Cr].CC([O-])=O,0.653490551,0.388415676,3.0,G5,111.04,-1.2463,10.681,5.0,2.0,0.0,3.0,0.0,30.0,0.0,0.0,0.0,0.0,40.13,40.93346199,0.0,30.62919048
3145,A-5225,"benzyldimethyl(2-{2-[4-(2,4,4-trimethylpentan-2-yl)phenoxy]ethoxy}ethyl)azanium chloride","InChI=1S/C27H42NO2.ClH/c1-26(2,3)22-27(4,5)24-13-15-25(16-14-24)30-20-19-29-18-17-28(6,7)21-23-11-9-8-10-12-23;/h8-16H,17-22H2,1-7H3;1H/q+1;/p-1",UREZNYTWGJKWBI-UHFFFAOYSA-M,[Cl-].CC(C)(C)CC(C)(C)c1ccc(OCCOCC[N+](C)(C)Cc2ccccc2)cc1,0.072909649,0.00526198,2.0,G3,448.091,3.0764,126.9754,31.0,2.0,0.0,4.0,11.0,174.0,2.0,0.0,0.0,2.0,18.46,196.3126179,4.8e-06,749.0559432
7312,C-359,5-bromosalicylic acid,"InChI=1S/C7H5BrO3/c8-4-1-2-6(9)5(3-4)7(10)11/h1-3,9H,(H,10,11)",IEJOONSLOGAXNO-UHFFFAOYSA-N,OC(=O)C1=C(O)C=CC(=C1)Br,-2.65,0.0,1.0,G1,217.018,1.8529,42.7661,11.0,2.0,2.0,4.0,1.0,58.0,1.0,0.0,0.0,1.0,57.53,71.41388244,3.23220887,295.7372023
1756,A-2891,oxetan-2-one,InChI=1S/C3H4O2/c4-3-1-2-5-3/h1-2H2,VEZXCJBBBCKRPI-UHFFFAOYSA-N,O=C1CCO1,0.710489386,0.0,1.0,G1,72.063,-0.0667,15.576,5.0,2.0,0.0,2.0,0.0,28.0,0.0,1.0,1.0,1.0,26.3,29.73837143,2.32240505,51.913403
572,A-1015,"3,7-dimethyloctan-3-ol","InChI=1S/C10H22O/c1-5-10(4,11)8-6-7-9(2)3/h9,11H,5-8H2,1-4H3",DLHQZZUEERVIGQ-UHFFFAOYSA-N,CCC(C)(O)CCCC(C)C,-2.694289782,0.051152522,2.0,G3,158.285,2.9737,49.6038,11.0,1.0,1.0,1.0,5.0,68.0,0.0,0.0,0.0,0.0,20.23,70.81796381,3.376278757,95.04589953
942,A-1634,2-methyldecanal,"InChI=1S/C11H22O/c1-3-4-5-6-7-8-9-11(2)10-12/h10-11H,3-9H2,1-2H3",LBICMZLDYMBIGA-UHFFFAOYSA-N,CCCCCCCCC(C)C=O,-4.027084465,0.247425011,2.0,G3,170.296,3.572,53.221,12.0,1.0,0.0,1.0,8.0,72.0,0.0,0.0,0.0,0.0,17.07,76.55019427,2.947948425,99.17723488
5452,B-2316,8-quinazolinol,"InChI=1S/C8H6N2O/c11-7-3-1-2-6-4-9-5-10-8(6)7/h1-5,11H",LNNRQIKKDKDFRV-UHFFFAOYSA-N,Oc1cccc2cncnc12,-2.0361,0.0,1.0,G1,146.149,1.3354,41.2028,11.0,3.0,1.0,3.0,0.0,54.0,2.0,0.0,0.0,2.0,46.01,63.34659737,2.913161164,381.2537713
2434,A-4076,2-[1-(aminomethyl)cyclohexyl]acetic acid hydrochloride,"InChI=1S/C9H17NO2.ClH/c10-7-9(6-8(11)12)4-2-1-3-5-9;/h1-7,10H2,(H,11,12);1H",XBUDZAQEMFGLEU-UHFFFAOYSA-N,[H+].[Cl-].NCC1(CCCCC1)CC(O)=O,0.019021146,0.013943346,3.0,G5,207.701,-1.5132,47.9372,13.0,2.0,2.0,4.0,3.0,78.0,0.0,1.0,1.0,1.0,63.32,86.58649496,0.0,172.1948894
5933,B-2862,cyphenothrin,"InChI=1S/C24H25NO3/c1-16(2)13-20-22(24(20,3)4)23(26)28-21(15-25)17-9-8-12-19(14-17)27-18-10-6-5-7-11-18/h5-14,20-22H,1-4H3",FJDPATXIBIBRIM-UHFFFAOYSA-N,CC(C)=CC1C(C(=O)OC(C#N)c2cccc(Oc3ccccc3)c2)C1(C)C,-7.5746,0.0,1.0,G1,375.468,5.82518,107.596,28.0,4.0,0.0,4.0,6.0,144.0,2.0,1.0,1.0,3.0,59.32,165.9535608,1.721481495,920.3664893
4497,B-1216,meconin,"InChI=1S/C10H10O4/c1-12-7-4-3-6-5-14-10(11)8(6)9(7)13-2/h3-4H,5H2,1-2H3",ORFFGRQMMWVHIB-UHFFFAOYSA-N,COc1ccc2COC(=O)c2c1OC,-1.8903,0.00515,2.0,G3,194.186,1.3742,48.6655,14.0,4.0,0.0,4.0,2.0,74.0,1.0,0.0,1.0,2.0,44.76,81.38749821,2.625252291,383.9535426
7835,C-1593,succinimide,"InChI=1S/C4H5NO2/c6-3-1-2-4(7)5-3/h1-2H2,(H,5,6,7)",KZNICNPSHKQLFF-UHFFFAOYSA-N,O=C1CCC(=O)N1,0.39,0.046884687,2.0,G3,99.089,-0.577,22.3837,7.0,2.0,1.0,3.0,0.0,38.0,0.0,1.0,1.0,1.0,46.17,40.7011526,2.553705027,104.8582023
9670,F-1135,"dithiane-3,6-dicarboxylic acid","InChI=1S/C6H8O4S2/c7-5(8)3-1-2-4(6(9)10)12-11-3/h3-4H,1-2H2,(H,7,8)(H,9,10)",NQRRVGBUZRSXRF-UHFFFAOYSA-N,O=C(O)C1CCC(C(=O)O)SS1,-1.93,0.0,1.0,G1,208.26,1.068,47.2636,12.0,4.0,2.0,6.0,2.0,68.0,0.0,1.0,1.0,1.0,74.6,77.11582429,2.39277708,175.7247662
7706,C-1340,fluroxypyr-meptyl;  fluroxypyr 1-methylheptyl ester,"InChI=1S/C15H21Cl2FN2O3/c1-3-4-5-6-7-9(2)23-10(21)8-22-15-12(17)13(19)11(16)14(18)20-15/h9H,3-8H2,1-2H3,(H2,19,20)",OLZQTUCTGLHFTQ-UHFFFAOYSA-N,CCCCCCC(C)OC(=O)COC1=NC(=C(Cl)C(=C1Cl)N)F,-6.43,0.09035,2.0,G3,367.248,4.3906,88.4354,23.0,5.0,1.0,8.0,9.0,130.0,1.0,0.0,0.0,1.0,74.44,144.8010434,2.445635254,543.943541
9696,F-1165,"Eburnamenine-14-carboxylic acid, ethyl ester, (3alpha,16alpha)-","InChI=1S/C22H26N2O2/c1-3-22-11-7-12-23-13-10-16-15-8-5-6-9-17(15)24(19(16)20(22)23)18(14-22)21(25)26-4-2/h5-6,8-9,14,20H,3-4,7,10-13H2,1-2H3",DDNCQMVWWZOMLN-UHFFFAOYSA-N,CCOC(=O)C1=CC2(CC)CCCN3CCC4=C(C32)N1C1=C4C=CC=C1,-4.84,0.0,1.0,G1,350.462,4.1483,102.82,26.0,4.0,0.0,4.0,3.0,136.0,2.0,1.0,3.0,5.0,34.47,153.9691937,1.848875031,925.6103409
9631,F-1088,7-(3-amino-2-methylazetidin-1-yl)-1-cyclopropyl-6-fluoro-4-oxoquinoline-3-carboxylic acid,"InChI=1S/C17H18FN3O3/c1-8-13(19)7-20(8)15-5-14-10(4-12(15)18)16(22)11(17(23)24)6-21(14)9-2-3-9/h4-6,8-9,13H,2-3,7,19H2,1H3,(H,23,24)",BYUOTYDQGYSLFD-UHFFFAOYSA-N,CC1C(N)CN1C1=CC2=C(C=C1F)C(=O)C(C(=O)O)=CN2C1CC1,-4.63,0.0,1.0,G1,331.347,1.7095,88.1797,24.0,5.0,2.0,7.0,3.0,126.0,2.0,2.0,2.0,4.0,88.56,136.8330994,1.959251001,919.4172128
9161,F-416,Methyl 4-dimethylaminobenzoate,"InChI=1S/C10H13NO2/c1-11(2)9-6-4-8(5-7-9)10(12)13-3/h4-7H,1-3H3",DBQGARDMYOMOOS-UHFFFAOYSA-N,COC(=O)C1=CC=C(N(C)C)C=C1,-3.05,0.125,2.0,G3,179.219,1.5392,52.1085,13.0,3.0,0.0,3.0,2.0,70.0,1.0,0.0,0.0,1.0,29.54,77.92607258,2.870929838,290.2979848
3845,B-305,"1,6-naphthalenedisulfonic acid, 4-amino-","InChI=1S/C10H9NO6S2/c11-9-3-4-10(19(15,16)17)7-2-1-6(5-8(7)9)18(12,13)14/h1-5H,11H2,(H,12,13,14)(H,15,16,17)",QUFFRITXLMVPMV-UHFFFAOYSA-N,Nc1ccc(c2ccc(cc12)[S](O)(=O)=O)[S](O)(=O)=O,-1.643,0.0,1.0,G1,303.317,0.9154,67.9896,19.0,5.0,3.0,9.0,2.0,102.0,2.0,0.0,0.0,2.0,134.76,108.7102304,2.932430573,870.2731743
3814,B-260,"3-furancarboxylic acid, tetrahydro-2,2-dimethyl-","InChI=1S/C7H10O4/c1-7(2)4(6(9)10)3-5(8)11-7/h4H,3H2,1-2H3,(H,9,10)/p-1/t4-/m1/s1",UZBOWOQARWWIER-SCSAIBSYSA-M,CC1(C)OC(=O)C[C@@H]1C([O-])=O,-1.2449,0.0,1.0,G1,157.145,-0.922,33.285,11.0,4.0,0.0,4.0,1.0,62.0,0.0,1.0,1.0,1.0,66.43,64.15389574,2.817106564,206.4861133
4422,B-1126,decamethylcyclopentasiloxane,"InChI=1S/C10H30O5Si5/c1-16(2)11-17(3,4)13-19(7,8)15-20(9,10)14-18(5,6)12-16/h1-10H3",XMSXQFUHVRWGNA-UHFFFAOYSA-N,C[Si]1(C)O[Si](C)(C)O[Si](C)(C)O[Si](C)(C)O[Si](C)(C)O1,-7.3387,0.0,1.0,G1,370.775,3.592,92.835,20.0,5.0,0.0,10.0,0.0,120.0,0.0,1.0,1.0,1.0,46.15,128.7238466,3.150538531,267.7823279
9193,F-459,"dipropyl benzene-1,2-dicarboxylate","InChI=1S/C14H18O4/c1-3-9-17-13(15)11-7-5-6-8-12(11)14(16)18-10-4-2/h5-8H,3-4,9-10H2,1-2H3",MQHNKCZKNAJROC-UHFFFAOYSA-N,CCCOC(=O)C1=C(C(=O)OCCC)C=CC=C1,-3.82,0.2275,2.0,G3,250.294,2.8202,67.589,18.0,4.0,0.0,4.0,6.0,98.0,1.0,0.0,0.0,1.0,52.6,106.9010747,2.845947496,373.0099479
129,A-216,"1-amino-4-(ethylamino)-9,10-dioxo-9,10-dihydroanthracene-2-carbonitrile","InChI=1S/C17H13N3O2/c1-2-20-12-7-9(8-18)15(19)14-13(12)16(21)10-5-3-4-6-11(10)17(14)22/h3-7,20H,2,19H2,1H3",ATXPWKWYLDEURI-UHFFFAOYSA-N,CCNc1cc(C#N)c(N)c2C(=O)c3ccccc3C(=O)c12,-7.638280591,0.0,1.0,G1,291.31,2.34768,83.0401,22.0,5.0,2.0,5.0,2.0,108.0,2.0,0.0,1.0,3.0,95.98,126.9127535,2.386809954,862.938264
779,A-1354,triethoxy(2-methylpropyl)silane,"InChI=1S/C10H24O3Si/c1-6-11-14(12-7-2,13-8-3)9-10(4)5/h10H,6-9H2,1-5H3",ALVYUZIFSCKIFP-UHFFFAOYSA-N,CCO[Si](CC(C)C)(OCC)OCC,-3.016846171,0.195918705,2.0,G3,220.385,2.6908,60.277,14.0,3.0,0.0,4.0,8.0,86.0,0.0,0.0,0.0,0.0,27.69,89.11533858,4.36812538,122.3092504
1831,A-2993,butanedinitrile,InChI=1S/C4H4N2/c5-3-1-2-4-6/h1-2H2,IAHFWCOBPZCAEA-UHFFFAOYSA-N,N#CCCC#N,0.175240889,0.012321219,2.0,G3,80.09,0.81376,20.46,6.0,2.0,0.0,2.0,1.0,30.0,0.0,0.0,0.0,0.0,47.58,36.61923673,2.783540828,79.09616281
536,A-960,methoxymethane,InChI=1S/C2H6O/c1-3-2/h1-2H3,LCGLNKUTAGEVQW-UHFFFAOYSA-N,COC,0.88436592,0.444404931,2.0,G3,46.069,0.2626,12.933,3.0,1.0,0.0,1.0,0.0,20.0,0.0,0.0,0.0,0.0,9.23,20.21773837,1.632993162,2.754887502
4623,B-1369,4-methylphenylisothiocyanate,"InChI=1S/C8H7NS/c1-7-2-4-8(5-3-7)9-6-10/h2-5H,1H3",ABQKHKWXTUVKGF-UHFFFAOYSA-N,Cc1ccc(cc1)N=C=S,-4.7213,0.0,1.0,G1,149.218,2.72932,45.865,10.0,2.0,0.0,2.0,1.0,50.0,1.0,0.0,0.0,1.0,12.36,65.41539008,2.996027732,257.0910097
3942,B-456,"methanediamine, n,n,n',n'-tetraethyl-","InChI=1S/C9H22N2/c1-5-10(6-2)9-11(7-3)8-4/h5-9H2,1-4H3",UNEXJVCWJSHFNN-UHFFFAOYSA-N,CCN(CC)CN(CC)CC,-0.1995,0.0,1.0,G1,158.289,1.6275,50.709,11.0,2.0,0.0,2.0,6.0,68.0,0.0,0.0,0.0,0.0,6.48,71.17845528,3.581293117,65.6319184
3916,B-410,isobutyl isobutyrate,"InChI=1S/C8H16O2/c1-6(2)5-10-8(9)7(3)4/h6-7H,5H2,1-4H3",RXGUIWHIADMCFC-UHFFFAOYSA-N,CC(C)COC(=O)C(C)C,-2.159,0.122,2.0,G3,144.214,1.8416,40.635,10.0,2.0,0.0,2.0,3.0,60.0,0.0,0.0,0.0,0.0,26.3,62.56891316,3.403753306,105.8252188
6612,B-3646,"2,3,5,6-tetrachloronitrobenzene",InChI=1S/C6HCl4NO2/c7-2-1-3(8)5(10)6(4(2)9)11(12)13/h1H,XQTLDIFVVHJORV-UHFFFAOYSA-N,[O-][N+](=O)c1c(Cl)c(Cl)cc(Cl)c1Cl,-5.0963,0.33685,2.0,G3,260.891,4.2084,53.1364,13.0,2.0,0.0,7.0,1.0,70.0,1.0,0.0,0.0,1.0,43.14,93.29744375,3.555142029,353.137268
377,A-647,"2,6,6-trimethylcyclohexa-1,3-diene-1-carbaldehyde","InChI=1S/C10H14O/c1-8-5-4-6-10(2,3)9(8)7-11/h4-5,7H,6H2,1-3H3",SGAWOGXMMPSZPB-UHFFFAOYSA-N,CC1=C(C=O)C(C)(C)CC=C1,-2.465007757,0.0,1.0,G1,150.221,2.4879,46.302,11.0,1.0,0.0,1.0,1.0,60.0,0.0,0.0,1.0,1.0,17.07,67.80021494,3.095228966,231.2573322
3457,A-5743,"2-[(1-amino-4-hydroxy-9,10-dioxo-9,10-dihydroanthracen-2-yl)oxy]ethyl phenyl carbonate","InChI=1S/C23H17NO7/c24-20-17(29-10-11-30-23(28)31-13-6-2-1-3-7-13)12-16(25)18-19(20)22(27)15-9-5-4-8-14(15)21(18)26/h1-9,12,25H,10-11,24H2",GLLYQJVICPAIGW-UHFFFAOYSA-N,Nc1c(OCCOC(=O)Oc2ccccc2)cc(O)c3C(=O)c4ccccc4C(=O)c13,-8.054415311,0.0,1.0,G1,419.389,3.3442,109.7392,31.0,8.0,2.0,8.0,5.0,156.0,3.0,0.0,1.0,4.0,125.15,176.3237974,1.458539185,1188.029421
5954,B-2887,bupirimate,"InChI=1S/C13H24N4O3S/c1-6-8-9-11-10(3)15-13(14-7-2)16-12(11)20-21(18,19)17(4)5/h6-9H2,1-5H3,(H,14,15,16)",DSKJPMWIHSOYEA-UHFFFAOYSA-N,CCCCc1c(C)nc(NCC)nc1O[S](=O)(=O)N(C)C,-4.1579,0.0,1.0,G1,316.427,1.74462,82.7795,21.0,6.0,1.0,8.0,8.0,120.0,1.0,0.0,0.0,1.0,84.42,126.548199,3.229204537,573.024259
5710,B-2609,isopentyl nitrate,"InChI=1S/C5H11NO3/c1-3-4-5(2)9-6(7)8/h5H,3-4H2,1-2H3",RWRBSYOTDDOXKC-UHFFFAOYSA-N,CCCC(C)O[N+]([O-])=O,-2.4809,0.0,1.0,G1,133.147,1.3833,32.4494,9.0,3.0,0.0,4.0,4.0,54.0,0.0,0.0,0.0,0.0,52.37,53.91957894,3.259231489,94.20389705
7655,C-1244,mevastatin,"InChI=1S/C23H34O5/c1-4-14(2)23(26)28-20-7-5-6-16-9-8-15(3)19(22(16)20)11-10-18-12-17(24)13-21(25)27-18/h6,8-9,14-15,17-20,22,24H,4-5,7,10-13H2,1-3H3",AJLFOPYRIVGYMJ-UHFFFAOYSA-N,CCC(C)C(=O)OC1CCC=C2C=CC(C)C(CCC3CC(O)CC(=O)O3)C12,-5.42,0.0,1.0,G1,390.52,3.9495,106.2908,28.0,5.0,1.0,5.0,6.0,156.0,0.0,1.0,3.0,3.0,72.83,167.7156464,1.698859046,636.9039408
8523,D-11,dodecane,"InChI=1S/C12H26/c1-3-5-7-9-11-12-10-8-6-4-2/h3-12H2,1-2H3",SNRUBQQJIBEYMU-UHFFFAOYSA-N,CCCCCCCCCCCC,-6.41,0.62655,2.0,G2,170.34,4.9272,57.518,12.0,0.0,0.0,0.0,9.0,74.0,0.0,0.0,0.0,0.0,0.0,78.75361429,2.727242813,56.4385619
3114,A-5186,"3,5-dimethylbenzoyl chloride","InChI=1S/C9H9ClO/c1-6-3-7(2)5-8(4-6)9(10)11/h3-5H,1-2H3",ZJIOBDJEKDUUCI-UHFFFAOYSA-N,Cc1cc(C)cc(c1)C(Cl)=O,-3.32928972,0.0,1.0,G1,168.623,2.68244,46.0995,11.0,1.0,0.0,2.0,1.0,58.0,1.0,0.0,0.0,1.0,17.07,70.99101779,3.186012534,271.3642492
1382,A-2397,[2-(dodecanoyloxy)ethyl]trimethylazanium chloride,"InChI=1S/C17H36NO2.ClH/c1-5-6-7-8-9-10-11-12-13-14-17(19)20-16-15-18(2,3)4;/h5-16H2,1-4H3;1H/q+1;/p-1",BBJUKVPDIPYNBS-UHFFFAOYSA-M,[Cl-].CCCCCCCCCCCC(=O)OCC[N+](C)(C)C,-2.211100306,0.0,1.0,G1,321.933,1.1607,85.7024,21.0,2.0,0.0,4.0,13.0,128.0,0.0,0.0,0.0,0.0,26.3,137.9762906,0.0,239.4348321
9646,F-1105,"7-chloro-1-methyl-5-phenyl-3H-1,4-benzodiazepin-2-one","InChI=1S/C16H13ClN2O/c1-19-14-8-7-12(17)9-13(14)16(18-10-15(19)20)11-5-3-2-4-6-11/h2-9H,10H2,1H3",AAOVKJBEBIDNHE-UHFFFAOYSA-N,CN1C(=O)CN=C(C2=CC=CC=C2)C2=C1C=CC(Cl)=C2,-3.71,0.031038507,3.0,G5,284.746,3.1538,81.81,20.0,2.0,0.0,4.0,1.0,100.0,2.0,0.0,1.0,3.0,32.67,122.0623791,2.229963444,694.8779898
633,A-1112,"1,5-dimethyl-1-vinylhex-4-en-1-yl 2-methylpropanoate","InChI=1S/C14H24O2/c1-7-14(6,10-8-9-11(2)3)16-13(15)12(4)5/h7,9,12H,1,8,10H2,2-6H3",JZIARAQCPRDGAC-UHFFFAOYSA-N,CC(C)C(=O)OC(C)(CCC=C(C)C)C=C,-4.810584984,0.0,1.0,G1,224.344,3.8767,68.197,16.0,2.0,0.0,2.0,6.0,92.0,0.0,0.0,0.0,0.0,26.3,99.37935978,4.367265669,272.4599288
7741,C-1396,"succinimid-1-ylmethyl  acetylsalicylate;  n-[(2-acetoxy)benzoyloxymethyl]pyrrolidine-2,5-dione","InChI=1S/C14H13NO6/c1-9(16)21-11-5-3-2-4-10(11)14(19)20-8-15-12(17)6-7-13(15)18/h2-5H,6-8H2,1H3",LNIRSJVVXSYEBA-UHFFFAOYSA-N,CC(=O)OC1=CC=CC=C1C(=O)OCN2C(=O)CCC2=O,-2.77,0.0,1.0,G1,291.259,0.8752,69.1205,21.0,6.0,0.0,7.0,4.0,110.0,1.0,1.0,1.0,2.0,89.98,119.9781214,2.05042548,593.2367251
9654,F-1118,"5-fluoro-1-(phenylmethyl)pyrimidine-2,4-dione","InChI=1S/C11H9FN2O2/c12-9-7-14(11(16)13-10(9)15)6-8-4-2-1-3-5-8/h1-5,7H,6H2,(H,13,15,16)",DOLBESUBPIZBQY-UHFFFAOYSA-N,O=C1NC(=O)N(CC2=CC=CC=C2)C=C1F,-2.65,0.0,1.0,G1,220.203,0.724,56.8247,16.0,3.0,1.0,5.0,2.0,82.0,2.0,0.0,0.0,2.0,54.86,89.99128649,2.396850501,601.3718946
2811,A-4699,ethyl 3-methyl-3-phenyloxirane-2-carboxylate,"InChI=1S/C12H14O3/c1-3-14-11(13)10-12(2,15-10)9-7-5-4-6-8-9/h4-8,10H,3H2,1-2H3",LQKRYVGRPXFFAV-UHFFFAOYSA-N,CCOC(=O)C1OC1(C)c2ccccc2,-2.314375006,0.0,1.0,G1,206.241,1.8637,55.3,15.0,3.0,0.0,3.0,3.0,80.0,1.0,1.0,1.0,2.0,38.83,89.00383721,2.102105019,360.3897981
8438,C-2514,"2-sulfamoyl-5-(2-nitrobenzenesulfonamido)-1,3,4-thiadiazole","InChI=1S/C8H7N5O6S3/c9-21(16,17)8-11-10-7(20-8)12-22(18,19)6-4-2-1-3-5(6)13(14)15/h1-4H,(H,10,12)(H2,9,16,17)",CTLJHLYIILERNX-UHFFFAOYSA-N,N[S](=O)(=O)C1=NN=C(N[S](=O)(=O)C2=C(C=CC=C2)[N+]([O-])=O)S1,-1.82,0.0,1.0,G1,365.374,-0.1055,75.1871,22.0,9.0,2.0,14.0,5.0,118.0,2.0,0.0,0.0,2.0,175.25,127.6008905,2.409508894,934.6860395
6454,B-3439,"azetidine, 1-[benzoyloxy(acetyl)]-","InChI=1S/C12H13NO3/c14-11(13-7-4-8-13)9-16-12(15)10-5-2-1-3-6-10/h1-3,5-6H,4,7-9H2",RSDMFNVRFBIYRK-UHFFFAOYSA-N,O=C(COC(=O)c1ccccc1)N2CCC2,-1.6085,0.0,1.0,G1,219.24,1.0757,57.9215,16.0,3.0,0.0,4.0,3.0,84.0,1.0,1.0,1.0,2.0,46.61,93.81164775,1.814883776,384.5101632
5393,B-2249,pentoxifylline,"InChI=1S/C13H18N4O3/c1-9(18)6-4-5-7-17-12(19)10-11(14-8-15(10)2)16(3)13(17)20/h8H,4-7H2,1-3H3",BYPFEZZEUUWMEJ-UHFFFAOYSA-N,Cn1cnc2N(C)C(=O)N(CCCCC(C)=O)C(=O)c12,-0.558,0.0,1.0,G1,278.312,0.193,74.747,20.0,7.0,0.0,7.0,5.0,108.0,2.0,0.0,0.0,2.0,78.89,115.0151897,2.381621798,766.2398536
1348,A-2337,2-[(E)-2-(1-cyano-1-methylpropyl)diazen-1-yl]-2-methylbutanenitrile,"InChI=1S/C10H16N4/c1-5-9(3,7-11)13-14-10(4,6-2)8-12/h5-6H2,1-4H3",AVTLBBWTUPQRAY-UHFFFAOYSA-N,CCC(C)(N=NC(C)(CC)C#N)C#N,-2.696191526,0.0,1.0,G1,192.266,2.82316,53.474,14.0,4.0,0.0,4.0,4.0,76.0,0.0,0.0,0.0,0.0,72.3,85.25566726,4.761626319,266.2243092
7911,C-1734,4-acetoxybenzamide;  4-carbamoylphenyl  acetate,"InChI=1S/C9H9NO3/c1-6(11)13-8-4-2-7(3-5-8)9(10)12/h2-5H,1H3,(H2,10,12)",BFASOGCHMDYMBM-UHFFFAOYSA-N,CC(=O)OC1=CC=C(C=C1)C(N)=O,-1.64,0.0,1.0,G1,179.175,0.7108,46.2689,13.0,3.0,1.0,4.0,2.0,68.0,1.0,0.0,0.0,1.0,69.39,75.30270959,2.809454194,329.2179802
9143,F-393,(4-aminophenyl)sulfonylurea,"InChI=1S/C7H9N3O3S/c8-5-1-3-6(4-2-5)14(12,13)10-7(9)11/h1-4H,8H2,(H3,9,10,11)",WVAKABMNNSMCDK-UHFFFAOYSA-N,NC(=O)NS(=O)(=O)C1=CC=C(N)C=C1,-1.97,0.0,1.0,G1,215.234,-0.3742,50.7593,14.0,4.0,3.0,7.0,2.0,76.0,1.0,0.0,0.0,1.0,115.28,80.9482868,3.047486126,437.7527536
3391,A-5583,"3-hydroxy-N-(2-methylphenyl)-4-[(E)-2-(2,4,5-trichlorophenyl)diazen-1-yl]naphthalene-2-carboxamide","InChI=1S/C24H16Cl3N3O2/c1-13-6-2-5-9-20(13)28-24(32)16-10-14-7-3-4-8-15(14)22(23(16)31)30-29-21-12-18(26)17(25)11-19(21)27/h2-12,29H,1H3,(H,28,32)/b30-22+",HERTVNKDSUIUDK-JBASAIQMSA-N,Cc1ccccc1NC(=O)C2=Cc3ccccc3C(=N/Nc4cc(Cl)c(Cl)cc4Cl)\C2=O,-7.69430966,0.0,1.0,G1,484.77,6.37622,130.8664,32.0,4.0,2.0,8.0,4.0,160.0,3.0,0.0,1.0,4.0,70.56,199.2378358,1.698621592,1315.59163
966,A-1678,"1,2-bis(prop-2-en-1-yl) benzene-1,2-dicarboxylate","InChI=1S/C14H14O4/c1-3-9-17-13(15)11-7-5-6-8-12(11)14(16)18-10-4-2/h3-8H,1-2,9-10H2",QUDWYFHPNIMBFC-UHFFFAOYSA-N,C=CCOC(=O)c1ccccc1C(=O)OCC=C,-3.221135687,0.286250599,4.0,G5,246.262,2.3722,67.401,18.0,4.0,0.0,4.0,6.0,94.0,1.0,0.0,0.0,1.0,52.6,105.5218686,2.907709957,419.6167253