,ID,Name,InChI,InChIKey,SMILES,Solubility,SD,Ocurrences,Group,MolWt,MolLogP,MolMR,HeavyAtomCount,NumHAcceptors,NumHDonors,NumHeteroatoms,NumRotatableBonds,NumValenceElectrons,NumAromaticRings,NumSaturatedRings,NumAliphaticRings,RingCount,TPSA,LabuteASA,BalabanJ,BertzCT
8884,E-1013,Thiopropazate,"InChI=1S/C23H28ClN3O2S/c1-18(28)29-16-15-26-13-11-25(12-14-26)9-4-10-27-20-5-2-3-6-22(20)30-23-8-7-19(24)17-21(23)27/h2-3,5-8,17H,4,9-16H2,1H3",AIUHRQHVWSUTGJ-UHFFFAOYSA-N,CC(=O)OCCN4CCN(CCCN2c1ccccc1Sc3ccc(Cl)cc23)CC4,-4.7,0.0,1.0,G1,446.016,4.5135,123.153,30.0,6.0,0.0,7.0,7.0,160.0,2.0,1.0,2.0,4.0,36.02,187.4721429,1.307308035,886.5019796
5593,B-2481,"butanamide, n-methyl-n-nitroso-","InChI=1S/C5H10N2O2/c1-3-4-5(8)7(2)6-9/h3-4H2,1-2H3",XPQQMTYSKBRMIY-UHFFFAOYSA-N,CCCC(=O)N(C)N=O,-1.5347,0.0,1.0,G1,130.147,0.9263,33.473,9.0,3.0,0.0,4.0,3.0,52.0,0.0,0.0,0.0,0.0,49.74,53.78524326,3.583388068,113.5256224
9614,F-1070,"(6-hydroxy-2,3,3a,5,6,6a-hexahydrofuro[2,3-d]furan-3-yl) 2-(6-methoxynaphthalen-2-yl)propanoate","InChI=1S/C20H22O6/c1-11(12-3-4-14-8-15(23-2)6-5-13(14)7-12)20(22)26-17-10-25-18-16(21)9-24-19(17)18/h3-8,11,16-19,21H,9-10H2,1-2H3",ISGRRYXIEFPBFN-UHFFFAOYSA-N,COC1=CC2=C(C=C1)C=C(C(C)C(=O)OC1COC3C(O)COC13)C=C2,-3.98,0.0,1.0,G1,358.39,2.0222,94.2818,26.0,6.0,1.0,6.0,4.0,138.0,2.0,2.0,2.0,4.0,74.22,151.1607633,1.472470878,819.0536189
332,A-558,2-benzoyl-5-methoxyphenol,"InChI=1S/C14H12O3/c1-17-11-7-8-12(13(15)9-11)14(16)10-5-3-2-4-6-10/h2-9,15H,1H3",DXGLGDHPHMLXJC-UHFFFAOYSA-N,COc1ccc(c(O)c1)C(=O)c2ccccc2,-4.580253828,0.150514998,2.0,G3,228.247,2.6318,64.5333,17.0,3.0,1.0,3.0,3.0,86.0,2.0,0.0,0.0,2.0,46.53,99.28768264,2.382869011,532.4185153
3543,A-5933,"(2R)-2,5,7,8-tetramethyl-2-[(4R,8R)-4,8,12-trimethyltridecyl]-3,4-dihydro-2H-1-benzopyran-6-ol","InChI=1S/C29H50O2/c1-20(2)12-9-13-21(3)14-10-15-22(4)16-11-18-29(8)19-17-26-25(7)27(30)23(5)24(6)28(26)31-29/h20-22,30H,9-19H2,1-8H3/t21-,22-,29-/m1/s1",GVJHHUAWPYXKBD-IEOSBIPESA-N,CC(C)CCC[C@@H](C)CCC[C@@H](C)CCC[C@]1(C)CCc2c(C)c(O)c(C)c(C)c2O1,-8.520248661,0.0,1.0,G1,430.717,8.84026,134.3908,31.0,2.0,1.0,2.0,12.0,178.0,1.0,0.0,1.0,2.0,29.46,192.7270196,1.738265683,705.4238778
425,A-731,"calcium 2,3-dihydroxybutanedioate","InChI=1S/C4H6O6.Ca/c5-1(3(7)8)2(6)4(9)10;/h1-2,5-6H,(H,7,8)(H,9,10);/q;+2/t1-,2-;/m1./s1",GUPPESBEIQALOS-ZVGUSBNCSA-N,[Ca++].O[C@H]([C@@H](O)C(O)=O)C(O)=O,-2.602434694,0.76584343,3.0,G4,190.164,-2.5034,33.0392,11.0,4.0,4.0,7.0,3.0,58.0,0.0,0.0,0.0,0.0,115.06,91.44982458,0.0,138.6612729
6713,B-3860,1-bromoheptane,"InChI=1S/C7H15Br/c1-2-3-4-5-6-7-8/h2-7H2,1H3",LSXKDWGTSHCFPP-UHFFFAOYSA-N,CCCCCCCBr,-4.431,0.0,1.0,G1,179.101,3.3517,42.553,8.0,0.0,0.0,1.0,5.0,50.0,0.0,0.0,0.0,0.0,0.0,60.79645132,2.530060457,29.36806555
7750,C-1413,"naproxen (n,n-dimethylcarbamoyl)methyl ester","InChI=1S/C18H21NO4/c1-12(18(21)23-11-17(20)19(2)3)13-5-6-15-10-16(22-4)8-7-14(15)9-13/h5-10,12H,11H2,1-4H3",IBUVVTIRLMVASK-UHFFFAOYSA-N,COC1=CC=C2C=C(C=CC2=C1)C(C)C(=O)OCC(=O)N(C)C,-4.9,0.0,1.0,G1,315.369,2.5833,88.568,23.0,4.0,0.0,5.0,5.0,122.0,2.0,0.0,0.0,2.0,55.84,135.3425729,2.121540216,724.0334079
5924,B-2853,Diethatyl-ethyl,"InChI=1S/C16H22ClNO3/c1-4-12-8-7-9-13(5-2)16(12)18(14(19)10-17)11-15(20)21-6-3/h7-9H,4-6,10-11H2,1-3H3",WFKSADNZWSKCRZ-UHFFFAOYSA-N,CCOC(=O)CN(C(=O)CCl)c1c(CC)cccc1CC,-3.4727,0.0,1.0,G1,311.809,2.9463,84.904,21.0,3.0,0.0,5.0,7.0,116.0,1.0,0.0,0.0,1.0,46.61,130.5805136,3.249216301,480.0454979
3731,B-121,colchicine,"InChI=1S/C22H25NO6/c1-12(24)23-16-8-6-13-10-19(27-3)21(28-4)22(29-5)20(13)14-7-9-18(26-2)17(25)11-15(14)16/h7,9-11,16H,6,8H2,1-5H3,(H,23,24)/t16-/m0/s1",IAKHMKGGTNLKSZ-INIZCTEOSA-N,COC1=CC=C2C(=CC1=O)[C@H](CCc3cc(OC)c(OC)c(OC)c23)NC(C)=O,-0.9482,0.0,1.0,G1,399.443,2.8716,109.2347,29.0,6.0,1.0,7.0,5.0,154.0,2.0,0.0,1.0,3.0,83.09,169.1047201,2.41412798,1001.39492
4857,B-1654,trifenmorph,"InChI=1S/C23H23NO/c1-4-10-20(11-5-1)23(21-12-6-2-7-13-21,22-14-8-3-9-15-22)24-16-18-25-19-17-24/h1-15H,16-19H2",ZJMLMBICUVVJDX-UHFFFAOYSA-N,C1CN(CCO1)C(c2ccccc2)(c3ccccc3)c4ccccc4,-7.2168,0.0,1.0,G1,329.443,4.3107,101.6,25.0,2.0,0.0,2.0,4.0,126.0,3.0,1.0,1.0,4.0,12.47,149.2378498,2.005956637,683.4323401
2797,A-4671,2-butyl-4-chloro-1H-imidazole-5-carbaldehyde,"InChI=1S/C8H11ClN2O/c1-2-3-4-7-10-6(5-12)8(9)11-7/h5H,2-4H2,1H3,(H,10,11)",JLVIHQCWASNXCK-UHFFFAOYSA-N,CCCCc1[nH]c(Cl)c(C=O)n1,-2.199127372,0.0,1.0,G1,186.642,2.2182,47.5972,12.0,2.0,1.0,4.0,4.0,66.0,1.0,0.0,0.0,1.0,45.75,76.14971042,2.680316353,270.0216186
5296,B-2144,"1h-pyrrole, 2,3-dihydro-1,5-dimethyl-","InChI=1S/C6H11N/c1-6-4-3-5-7(6)2/h4H,3,5H2,1-2H3",MFGQUMAXNNHCNG-UHFFFAOYSA-N,CN1CCC=C1C,0.1265,0.0,1.0,G1,97.161,1.2257,31.004,7.0,1.0,0.0,1.0,0.0,40.0,0.0,0.0,1.0,1.0,3.24,44.62836108,2.538757992,94.35314212
5633,B-2523,"[1,1'-biphenyl]-3-ol, 4-nitro-","InChI=1S/C12H9NO3/c14-12-8-10(6-7-11(12)13(15)16)9-4-2-1-3-5-9/h1-8,14H",HYPKGPVDQYUOSV-UHFFFAOYSA-N,Oc1cc(ccc1[N+]([O-])=O)c2ccccc2,-3.8557,0.0,1.0,G1,215.208,2.9674,60.1972,16.0,3.0,1.0,4.0,2.0,80.0,2.0,0.0,0.0,2.0,63.37,91.9357068,2.464853288,523.0420116
9618,F-1074,"6-methoxy-3-methylfuro[3,2-g]chromen-7-one","InChI=1S/C13H10O4/c1-7-6-16-11-5-10-8(3-9(7)11)4-12(15-2)13(14)17-10/h3-6H,1-2H3",BDLQXDUSRMYDNS-UHFFFAOYSA-N,COC1=CC2=C(C=C3OC=C(C)C3=C2)OC1=O,-5.0,0.0,1.0,G1,230.219,2.85622,63.545,17.0,4.0,0.0,4.0,1.0,86.0,3.0,0.0,0.0,3.0,52.58,96.39882983,2.452218713,764.0213237
4353,B-1043,"2,4,6(1h,3h,5h)-pyrimidinetrione, 5-ethyl-5-(1-p","InChI=1S/C11H17N3O3/c1-2-11(14-6-4-3-5-7-14)8(15)12-10(17)13-9(11)16/h2-7H2,1H3,(H2,12,13,15,16,17)",ZFVLHMJCLWOOOY-UHFFFAOYSA-N,CCC1(N2CCCCC2)C(=O)NC(=O)NC1=O,-2.1562,0.0,1.0,G1,239.275,-0.0129,60.1274,17.0,4.0,2.0,6.0,2.0,94.0,0.0,2.0,2.0,2.0,78.51,99.7211342,2.300555877,340.9731567
8858,E-934,2-(4-Aminophenyl)-6-methyl-benzothiazole,"InChI=1S/C14H12N2S/c1-9-2-7-12-13(8-9)17-14(16-12)10-3-5-11(15)6-4-10/h2-8H,15H2,1H3",XRTJYEIMLZALBD-UHFFFAOYSA-N,N(c(c(S1)cc(c2)C)c2)=C1c(ccc(N)c3)c3,-3.68,0.0,1.0,G1,240.331,3.85392,74.2054,17.0,3.0,1.0,3.0,1.0,84.0,3.0,0.0,0.0,3.0,38.91,103.7350059,2.142938437,668.2549998
4265,B-944,iodamide,"InChI=1S/C12H11I3N2O4/c1-4(18)16-3-6-8(13)7(12(20)21)10(15)11(9(6)14)17-5(2)19/h3H2,1-2H3,(H,16,18)(H,17,19)(H,20,21)",VVDGWALACJEJKG-UHFFFAOYSA-N,CC(=O)NCc1c(I)c(NC(C)=O)c(I)c(C(O)=O)c1I,-2.3208,0.0,1.0,G1,627.942,2.7931,103.3767,21.0,3.0,3.0,9.0,4.0,114.0,1.0,0.0,0.0,1.0,95.5,161.7850946,3.544565284,631.6639332
8319,C-2334,2-(n4-acetyl)sulfathiazole,"InChI=1S/C11H11N3O3S2/c1-8(15)13-9-2-4-10(5-3-9)19(16,17)14-11-12-6-7-18-11/h2-7H,1H3,(H,12,14)(H,13,15)",KXNXWINFSDKMHD-UHFFFAOYSA-N,CC(=O)NC1=CC=C(C=C1)[S](=O)(=O)NC2=NC=CS2,-3.43,0.0,1.0,G1,297.361,1.9023,73.6682,19.0,5.0,2.0,8.0,4.0,100.0,2.0,0.0,0.0,2.0,88.16,114.1004152,2.187980037,663.7207902
2357,A-3926,6-methylhept-5-en-2-one,"InChI=1S/C8H14O/c1-7(2)5-4-6-8(3)9/h5H,4,6H2,1-3H3",UHEPJGULSIKKTP-UHFFFAOYSA-N,CC(C)=CCCC(C)=O,-1.621048971,0.0,1.0,G1,126.199,2.3218,39.346,9.0,1.0,0.0,1.0,3.0,52.0,0.0,0.0,0.0,0.0,17.07,56.7657649,3.305042994,118.529325
6355,B-3333,"pyran, 2,2'-oxybis[tetrahydro-6-methyl-","InChI=1S/C12H22O3/c1-9-5-3-7-11(13-9)15-12-8-4-6-10(2)14-12/h9-12H,3-8H2,1-2H3",DVRJCBOAIPILPC-UHFFFAOYSA-N,CC1CCCC(O1)OC2CCCC(C)O2,-1.1083,0.0,1.0,G1,214.305,2.8332,57.457,15.0,3.0,0.0,3.0,2.0,88.0,0.0,2.0,2.0,2.0,27.69,92.08258767,1.748169987,175.3062532
4573,B-1309,"benzoic acid, 2,6-dibromo-3,4,5-trihydroxy-","InChI=1S/C7H4Br2O5/c8-2-1(7(13)14)3(9)5(11)6(12)4(2)10/h10-12H,(H,13,14)",RZMMKKHHNDGXPD-UHFFFAOYSA-N,OC(=O)c1c(Br)c(O)c(O)c(O)c1Br,-0.4188,0.0,1.0,G1,327.912,2.0266,53.7957,14.0,4.0,4.0,7.0,1.0,76.0,1.0,0.0,0.0,1.0,97.99,94.86989755,3.682463306,386.0265608
6661,B-3754,"cinnamic acid, p-methoxy-","InChI=1S/C10H10O3/c1-13-9-5-2-8(3-6-9)4-7-10(11)12/h2-7H,1H3,(H,11,12)/b7-4+",AFDXODALSZRGIH-QPJJXVBHSA-N,COc1ccc(\C=C\C(O)=O)cc1,-2.3984,0.22055,2.0,G3,178.187,1.793,49.6638,13.0,2.0,1.0,3.0,3.0,68.0,1.0,0.0,0.0,1.0,46.53,76.27086963,2.746940552,311.4466725
6380,B-3361,"3-pyridinecarboxylic acid, nonyl ester","InChI=1S/C15H23NO2/c1-2-3-4-5-6-7-8-12-18-15(17)14-10-9-11-16-13-14/h9-11,13H,2-8,12H2,1H3",CPDDCIYPNIRWBG-UHFFFAOYSA-N,CCCCCCCCCOC(=O)c1cccnc1,-3.0958,0.0,1.0,G1,249.354,3.989,72.5125,18.0,3.0,0.0,3.0,9.0,100.0,1.0,0.0,0.0,1.0,39.19,109.5755396,1.99579575,324.5253032
3969,B-508,"1-propyne, 3-bromo-","InChI=1S/C3H3Br/c1-2-3-4/h1H,3H2",YORCIIVHUBAYBQ-UHFFFAOYSA-N,BrCC#C,-0.9022,0.0,1.0,G1,118.961,1.0145,22.627,4.0,0.0,0.0,1.0,0.0,22.0,0.0,0.0,0.0,0.0,0.0,34.33590825,2.43309631,33.0383064
7633,C-1199,1-acetoxymethyl-5-fluorouracil,"InChI=1S/C7H7FN2O4/c1-4(11)14-3-10-2-5(8)6(12)9-7(10)13/h2H,3H2,1H3,(H,9,12,13)",RQIJPDNDFZUCEI-UHFFFAOYSA-N,CC(=O)OCN1C=C(F)C(=O)NC1=O,-0.67,0.0,1.0,G1,202.141,-0.8037,43.0467,14.0,5.0,1.0,7.0,2.0,76.0,1.0,0.0,0.0,1.0,81.16,76.93914384,2.986727177,461.4929786
2069,A-3411,1-ethylpiperidine,"InChI=1S/C7H15N/c1-2-8-6-4-3-5-7-8/h2-7H2,1H3",HTLZVHNRZJPSMI-UHFFFAOYSA-N,CCN1CCCCC1,-1.275710522,0.0,1.0,G1,113.204,1.4922,35.965,8.0,1.0,0.0,1.0,1.0,48.0,0.0,1.0,1.0,1.0,3.24,51.68290623,2.125016255,55.40716557
5098,B-1924,"1,4-dichloro-2,5-dimethoxybenzene","InChI=1S/C8H8Cl2O2/c1-11-7-3-6(10)8(12-2)4-5(7)9/h3-4H,1-2H3",PFIADAMVCJPXSF-UHFFFAOYSA-N,COc1cc(Cl)c(OC)cc1Cl,-4.413,0.0,1.0,G1,207.056,3.0106,49.566,12.0,2.0,0.0,4.0,2.0,66.0,1.0,0.0,0.0,1.0,18.46,80.99491026,3.164874105,256.8815038
4784,B-1571,"n,n-dimethylisopropylamine","InChI=1S/C5H13N/c1-5(2)6(3)4/h5H,1-4H3",VMOWKUTXPNPTEN-UHFFFAOYSA-N,CC(C)N(C)C,1.0597,0.0,1.0,G1,87.166,0.9564,28.823,6.0,1.0,0.0,1.0,1.0,38.0,0.0,0.0,0.0,0.0,3.24,39.95885316,2.993497243,24.91968454
2133,A-3518,"2,4-dimethylaniline","InChI=1S/C8H11N/c1-6-3-4-8(9)7(2)5-6/h3-5H,9H2,1-2H3",CZZZABOKJQXEBO-UHFFFAOYSA-N,Cc1ccc(N)c(C)c1,-1.335253673,0.0,1.0,G1,121.183,1.88564,40.3284,9.0,1.0,1.0,1.0,0.0,48.0,1.0,0.0,0.0,1.0,26.02,55.50117805,3.17167803,215.8076621
5110,B-1937,"undecanoic acid, 11-bromo-","InChI=1S/C11H21BrO2/c12-10-8-6-4-2-1-3-5-7-9-11(13)14/h1-10H2,(H,13,14)",IUDGNRWYNOEIKF-UHFFFAOYSA-N,OC(=O)CCCCCCCCCCBr,-3.699,0.0,1.0,G1,265.191,3.9768,62.9828,14.0,1.0,1.0,3.0,10.0,84.0,0.0,0.0,0.0,0.0,37.3,95.21197563,2.884064615,137.2492211
2500,A-4181,4-methylbenzaldehyde,"InChI=1S/C8H8O/c1-7-2-4-8(6-9)5-3-7/h2-6H,1H3",FXLOVSHXALFLKQ-UHFFFAOYSA-N,Cc1ccc(C=O)cc1,-1.723701533,0.479042924,2.0,G3,120.151,1.80752,36.5665,9.0,1.0,0.0,1.0,1.0,46.0,1.0,0.0,0.0,1.0,17.07,54.32280945,3.009781948,198.3125496
4264,B-942,"azuleno[6,5-b]furan-2,6-(3h,4h)-dione, 3a,7,7a,8","InChI=1S/C15H20O4/c1-6-4-11-13(8(3)15(18)19-11)14(17)12-7(2)10(16)5-9(6)12/h6,8-9,11,13-14,17H,4-5H2,1-3H3/t6-,8-,9+,11+,13+,14+/m0/s1",BFWXQSLJSDLIAA-GSGOXJSYSA-N,C[C@H]1C[C@H]2OC(=O)[C@@H](C)[C@H]2[C@H](O)C3=C(C)C(=O)C[C@H]13,-1.945,0.0,1.0,G1,264.321,1.4703,68.1358,19.0,4.0,1.0,4.0,0.0,104.0,0.0,2.0,3.0,3.0,63.6,112.3721673,2.051923341,478.5372463
1740,A-2869,"2-hexoxypropane-1,3-diol","InChI=1S/C9H20O3/c1-2-3-4-5-6-12-9(7-10)8-11/h9-11H,2-8H2,1H3",PXWAQUODOTWYMT-UHFFFAOYSA-N,CCCCCCOC(CO)CO,-1.055812212,0.0,1.0,G1,176.256,0.9365,48.0536,12.0,3.0,2.0,3.0,8.0,74.0,0.0,0.0,0.0,0.0,49.69,74.36080068,3.062399017,81.8428331
7786,C-1479,"entacapone analog (2 b); (e)-2-cyano-n,n-diethyl-3-(3-butylaminocarbonyloxy-4-hydroxy-5-nitrophenyl)propenamide","InChI=1S/C19H24N4O6/c1-4-7-8-21-19(26)29-16-11-13(10-15(17(16)24)23(27)28)9-14(12-20)18(25)22(5-2)6-3/h9-11,24H,4-8H2,1-3H3,(H,21,26)/b14-9-",LAYLZIREKXYMDV-ZROIWOOFSA-N,CCCCNC(=O)OC1=C(O)C(=CC(=C1)\C=C(C#N)/C(=O)N(CC)CC)[N+]([O-])=O,-2.32,0.0,1.0,G1,404.423,2.96428,105.2139,29.0,7.0,2.0,10.0,9.0,156.0,1.0,0.0,0.0,1.0,145.8,168.072122,3.315511332,839.8364959
7608,C-1129,"4-chloro-3,5-dimethylphenol;  4-chloro-3,5-xylenol","InChI=1S/C8H9ClO/c1-5-3-7(10)4-6(2)8(5)9/h3-4,10H,1-2H3",OSDLLIBGSJNGJE-UHFFFAOYSA-N,CC1=C(Cl)C(=CC(=C1)O)C,-2.67,0.194354165,4.0,G5,156.612,2.66244,42.5908,10.0,1.0,1.0,2.0,0.0,54.0,1.0,0.0,0.0,1.0,20.23,65.25878733,3.310532875,232.4296584
681,A-1182,troclosene sodium,"InChI=1S/C3HCl2N3O3.Na/c4-7-1(9)6-2(10)8(5)3(7)11;/h(H,6,9,10);/q;+1/p-1",MSFGZHUJTJBYFA-UHFFFAOYSA-M,[Na+].ClN1C(=O)[N-]C(=O)N(Cl)C1=O,-0.895160011,0.50793475,4.0,G4,219.947,-4.6648,37.054,12.0,5.0,0.0,9.0,0.0,60.0,1.0,0.0,0.0,1.0,75.17,97.23813008,1.21e-06,408.0820244
103,A-171,(3-isocyanatopropyl)trimethoxysilane,"InChI=1S/C7H15NO4Si/c1-10-13(11-2,12-3)6-4-5-8-7-9/h4-6H2,1-3H3",FMGBDYLOANULLW-UHFFFAOYSA-N,CO[Si](CCCN=C=O)(OC)OC,-3.256981001,0.0,1.0,G1,205.286,0.5904,49.1935,13.0,5.0,0.0,6.0,7.0,76.0,0.0,0.0,0.0,0.0,57.12,79.07735682,3.873428642,169.0666932
3515,A-5868,10-[(2-methylprop-2-enoyl)oxy]decyl 2-methylprop-2-enoate,"InChI=1S/C18H30O4/c1-15(2)17(19)21-13-11-9-7-5-6-8-10-12-14-22-18(20)16(3)4/h1,3,5-14H2,2,4H3",LRZPQLZONWIQOJ-UHFFFAOYSA-N,CC(=C)C(=O)OCCCCCCCCCCOC(=O)C(C)=C,-6.350206051,0.0,1.0,G1,310.434,4.3458,88.482,22.0,4.0,0.0,4.0,13.0,126.0,0.0,0.0,0.0,0.0,52.6,134.1141956,3.209075156,335.2834457
4504,B-1225,"2,6-diethylaniline","InChI=1S/C10H15N/c1-3-8-6-5-7-9(4-2)10(8)11/h5-7H,3-4,11H2,1-2H3",FOYHNROGBXVLLX-UHFFFAOYSA-N,CCc1cccc(CC)c1N,-2.3478,0.0,1.0,G1,149.237,2.3936,49.6104,11.0,1.0,1.0,1.0,2.0,60.0,1.0,0.0,0.0,1.0,26.02,68.23106227,3.095198252,218.378135
3850,B-312,"benzoic acid, 2-hydroxy-, 2-hydroxyethyl ester","InChI=1S/C9H10O4/c10-5-6-13-9(12)7-3-1-2-4-8(7)11/h1-4,10-11H,5-6H2",LVYLCBNXHHHPSB-UHFFFAOYSA-N,OCCOC(=O)c1ccccc1O,-1.1567,0.0,1.0,G1,182.175,0.5413,45.4751,13.0,4.0,2.0,4.0,3.0,70.0,1.0,0.0,0.0,1.0,66.76,75.3897643,2.710721902,295.4211053
5913,B-2841,penbutolol,"InChI=1S/C18H29NO2/c1-18(2,3)19-12-15(20)13-21-17-11-7-6-10-16(17)14-8-4-5-9-14/h6-7,10-11,14-15,19-20H,4-5,8-9,12-13H2,1-3H3/t15-/m1/s1",KQXKVJAGOJTNJS-OAHLLOKOSA-N,CC(C)(C)NC[C@@H](O)COc1ccccc1C2CCCC2,-1.6195,0.0,1.0,G1,291.435,3.472,86.9085,21.0,3.0,2.0,3.0,6.0,118.0,1.0,1.0,1.0,2.0,41.49,128.2625185,1.876651522,433.0896211
577,A-1022,"(2E)-3,7-dimethylocta-2,6-dien-1-yl formate","InChI=1S/C11H18O2/c1-10(2)5-4-6-11(3)7-8-13-9-12/h5,7,9H,4,6,8H2,1-3H3/b11-7+",FQMZVFJYMPNUCT-YRNVUSSQSA-N,CC(C)=CCC\C(C)=C\COC=O,-3.746150762,0.0,1.0,G1,182.263,2.8521,54.438,13.0,2.0,0.0,2.0,6.0,74.0,0.0,0.0,0.0,0.0,26.3,80.28453344,3.601299451,198.1358185
3826,B-280,"1,8-anthraquinonedisulfonic acid","InChI=1S/C14H8O8S2/c15-13-7-3-1-5-9(23(17,18)19)11(7)14(16)12-8(13)4-2-6-10(12)24(20,21)22/h1-6H,(H,17,18,19)(H,20,21,22)",IJNPIHLZSZCGOC-UHFFFAOYSA-N,O[S](=O)(=O)c1cccc2C(=O)c3cccc(c3C(=O)c12)[S](O)(=O)=O,1.2572,0.0,1.0,G1,368.344,0.9554,79.3782,24.0,6.0,2.0,10.0,2.0,124.0,2.0,0.0,1.0,3.0,142.88,135.7928666,2.463892691,1039.85957
6933,B-4240,monalide,"InChI=1S/C13H18ClNO/c1-4-9-13(2,3)12(16)15-11-7-5-10(14)6-8-11/h5-8H,4,9H2,1-3H3,(H,15,16)",KXGYBSNVFXBPNO-UHFFFAOYSA-N,CCCC(C)(C)C(=O)Nc1ccc(Cl)cc1,-4.0218,0.0,1.0,G1,239.746,4.1048,68.7707,16.0,1.0,1.0,3.0,4.0,88.0,1.0,0.0,0.0,1.0,29.1,102.0006484,2.671180989,356.7002729
4416,B-1120,2-bromoethanol,"InChI=1S/C2H5BrO/c3-1-2-4/h4H,1-2H2",LDLCZOVUSADOIV-UHFFFAOYSA-N,OCCBr,0.9032,0.0,1.0,G1,124.965,0.3736,20.8798,4.0,1.0,1.0,2.0,1.0,26.0,0.0,0.0,0.0,0.0,20.23,33.7659745,1.974744871,8.0
1862,A-3060,sodium (2S)-1-hexadecanoyl-5-oxopyrrolidine-2-carboxylate,"InChI=1S/C21H37NO4.Na/c1-2-3-4-5-6-7-8-9-10-11-12-13-14-15-19(23)22-18(21(25)26)16-17-20(22)24;/h18H,2-17H2,1H3,(H,25,26);/q;+1/p-1/t18-;/m0./s1",YHJSWPBXHVITHU-FERBBOLQSA-M,[Na+].CCCCCCCCCCCCCCCC(=O)N1[C@@H](CCC1=O)C([O-])=O,-4.022319118,0.0,1.0,G1,389.512,0.7392,100.194,27.0,4.0,0.0,6.0,15.0,150.0,0.0,1.0,1.0,1.0,77.51,186.4842955,6.76e-06,441.8975443
7828,C-1580,"cycluron; 3-cyclooctyl-1,1-dimethylurea","InChI=1S/C11H22N2O/c1-13(2)11(14)12-10-8-6-4-3-5-7-9-10/h10H,3-9H2,1-2H3,(H,12,14)",DQZCVNGCTZLGAQ-UHFFFAOYSA-N,CN(C)C(=O)NC1CCCCCCC1,-2.26,0.059492745,3.0,G5,198.31,2.3705,58.3257,14.0,1.0,1.0,3.0,1.0,82.0,0.0,1.0,1.0,1.0,32.34,86.85405897,2.295537933,172.1263449
2118,A-3497,cadmium dinitrate,"InChI=1S/Cd.2HNO3/c;2*2-1(3)4/h;2*(H,2,3,4)/q+2;;",IZIPRBSCGMISKX-UHFFFAOYSA-N,[Cd++].O[N+]([O-])=O.O[N+]([O-])=O,0.327636132,0.0,1.0,G1,238.436,-0.6979,17.5618,9.0,4.0,2.0,9.0,0.0,48.0,0.0,0.0,0.0,0.0,126.74,68.46518759,-7.2e-08,69.05865003
2881,A-4823,2-methylbut-2-ene,"InChI=1S/C5H10/c1-4-5(2)3/h4H,1-3H3",BKOOMYPCSUNDGP-UHFFFAOYSA-N,CC=C(C)C,-2.233150945,0.163613274,2.0,G3,70.135,1.9725,25.105,5.0,0.0,0.0,0.0,0.0,30.0,0.0,0.0,0.0,0.0,0.0,33.50941645,3.143197306,38.0
4914,B-1720,"methane, chloronitro-",InChI=1S/CH2ClNO2/c2-1-3(4)5/h1H2,CGKPGVZMSKVVOF-UHFFFAOYSA-N,[O-][N+](=O)CCl,-0.281,0.0,1.0,G1,95.485,0.4594,17.7144,5.0,2.0,0.0,4.0,1.0,30.0,0.0,0.0,0.0,0.0,43.14,33.69549298,2.847378923,44.91260938
5817,B-2734,"thymidine, 3'-azido-3'-deoxy-","InChI=1S/C10H13N5O4/c1-5-3-15(10(18)12-9(5)17)8-2-6(13-14-11)7(4-16)19-8/h3,6-8,16H,2,4H2,1H3,(H,12,17,18)/t6-,7+,8+/m0/s1",HBOMLICNUCNMMY-XLPZGREQSA-N,CC1=CN([C@H]2C[C@H](N=[N+]=[N-])[C@@H](CO)O2)C(=O)NC1=O,-1.1221,0.0,1.0,G1,267.245,-0.19628,64.6065,19.0,6.0,2.0,9.0,3.0,102.0,1.0,1.0,1.0,2.0,133.08,106.6290373,2.341856937,629.542562
1726,A-2851,"2-amino-2-(hydroxymethyl)propane-1,3-diol hydrochloride","InChI=1S/C4H11NO3.ClH/c5-4(1-6,2-7)3-8;/h6-8H,1-3,5H2;1H",QKNYBSVHEMOAJP-UHFFFAOYSA-N,[H+].[Cl-].NC(CO)(CO)CO,0.551414915,0.0,1.0,G1,157.597,-5.2227,29.2878,9.0,4.0,4.0,5.0,3.0,58.0,0.0,0.0,0.0,0.0,86.71,61.19456095,-2.45e-07,63.25838097
3666,B-14,niclosamide,"InChI=1S/C13H8Cl2N2O4/c14-7-1-4-12(18)9(5-7)13(19)16-11-3-2-8(17(20)21)6-10(11)15/h1-6,18H,(H,16,19)",RJMUSRYZPJIFPJ-UHFFFAOYSA-N,Oc1ccc(Cl)cc1C(=O)Nc2ccc(cc2Cl)[N+]([O-])=O,-5.3106,0.610817514,3.0,G4,327.123,3.8595,79.1764,21.0,4.0,2.0,8.0,3.0,108.0,2.0,0.0,0.0,2.0,92.47,128.6185657,2.273996756,734.1063538
3262,A-5371,sodium 2-ethylhexanoate,"InChI=1S/C8H16O2.Na/c1-3-5-6-7(4-2)8(9)10;/h7H,3-6H2,1-2H3,(H,9,10);/q;+1/p-1",VYPDUQYOLCLEGS-UHFFFAOYSA-M,[Na+].CCCCC(CC)C([O-])=O,0.779379433,0.0,1.0,G1,166.196,-2.0433,38.313,11.0,2.0,0.0,3.0,5.0,60.0,0.0,0.0,0.0,0.0,40.13,90.6630013,0.0,104.2651805
2829,A-4725,4-bromophenyl acetate,"InChI=1S/C8H7BrO2/c1-6(10)11-8-4-2-7(9)3-5-8/h2-5H,1H3",XEXHCQJRVMVJMY-UHFFFAOYSA-N,CC(=O)Oc1ccc(Br)cc1,-2.416604157,0.0,1.0,G1,215.046,2.3744,45.451,11.0,2.0,0.0,3.0,1.0,58.0,1.0,0.0,0.0,1.0,26.3,73.30390228,2.736298072,253.2994976
4276,B-955,n-(aminocarbonyl)glycine,"InChI=1S/C3H6N2O3/c4-3(8)5-1-2(6)7/h1H2,(H,6,7)(H3,4,5,8)",KZVRXPPUJQRGFN-UHFFFAOYSA-N,NC(=O)NCC(O)=O,-0.5809,0.0,1.0,G1,118.092,-1.2607,25.2219,8.0,2.0,3.0,5.0,2.0,46.0,0.0,0.0,0.0,0.0,92.42,45.47616609,3.181845867,97.09616281
5811,B-2728,"1,2:3,4-diepoxybutane (2s,3s)","InChI=1S/C4H6O2/c1-3(5-1)4-2-6-4/h3-4H,1-2H2/t3-,4-/m0/s1",ZFIVKAOQEXOYFY-IMJSIDKUSA-N,C1O[C@@H]1[C@@H]2CO2,1.065,0.0,1.0,G1,86.09,-0.216,19.48,6.0,2.0,0.0,2.0,1.0,34.0,0.0,2.0,2.0,2.0,25.06,36.04950552,1.915546702,53.9483369
2299,A-3831,Methyl morpholine oxide,"InChI=1S/C5H11NO2/c1-6(7)2-4-8-5-3-6/h2-5H2,1H3",LFTLOKWAGJYHHR-UHFFFAOYSA-N,C[N+]1([O-])CCOCC1,0.456309929,0.0,1.0,G1,117.148,-0.039,30.1044,8.0,2.0,0.0,3.0,0.0,48.0,0.0,1.0,1.0,1.0,32.29,49.02481097,2.327882879,74.49785514
6747,B-3957,"1,5-hexadiene","InChI=1S/C6H10/c1-3-5-6-4-2/h3-4H,1-2,5-6H2",PYGSKMBEVAICCR-UHFFFAOYSA-N,C=CCCC=C,-2.6867,0.0,1.0,G1,82.146,2.1386,29.628,6.0,0.0,0.0,0.0,3.0,34.0,0.0,0.0,0.0,0.0,0.0,39.18475554,2.655904918,36.0
4894,B-1699,doxepin,"InChI=1S/C19H21NO/c1-20(2)13-7-11-17-16-9-4-3-8-15(16)14-21-19-12-6-5-10-18(17)19/h3-6,8-12H,7,13-14H2,1-2H3/b17-11+",ODQWQRRAPPTVAG-GZTJUZNOSA-N,CN(C)CC\C=C1/c2ccccc2COc3ccccc13,-3.9469,0.0,1.0,G1,279.383,3.9624,87.466,21.0,2.0,0.0,2.0,3.0,108.0,2.0,0.0,1.0,3.0,12.47,126.2210368,2.065949703,608.620859
6496,B-3483,"phthalic acid, 3,4-dimethoxy-, 2-ethyl ester","InChI=1S/C12H14O6/c1-4-18-12(15)7-5-6-8(16-2)10(17-3)9(7)11(13)14/h5-6H,4H2,1-3H3,(H,13,14)/p-1",YSSRAFLMFRNXKL-UHFFFAOYSA-M,CCOC(=O)c1ccc(OC)c(OC)c1C([O-])=O,-2.253,0.0,1.0,G1,253.23,0.244,59.833,18.0,6.0,0.0,6.0,5.0,98.0,1.0,0.0,0.0,1.0,84.89,104.0789694,3.436703794,465.8805941
624,A-1099,bis(2-butoxyethyl) adipate,"InChI=1S/C18H34O6/c1-3-5-11-21-13-15-23-17(19)9-7-8-10-18(20)24-16-14-22-12-6-4-2/h3-16H2,1-2H3",IHTSDBYPAZEUOP-UHFFFAOYSA-N,CCCCOCCOC(=O)CCCCC(=O)OCCOCCCC,-4.958733139,0.711698199,2.0,G2,346.464,3.2666,91.84,24.0,6.0,0.0,6.0,17.0,142.0,0.0,0.0,0.0,0.0,71.06,145.7204921,3.314723363,275.8841107