,ID,Name,InChI,InChIKey,SMILES,Solubility,SD,Ocurrences,Group,MolWt,MolLogP,MolMR,HeavyAtomCount,NumHAcceptors,NumHDonors,NumHeteroatoms,NumRotatableBonds,NumValenceElectrons,NumAromaticRings,NumSaturatedRings,NumAliphaticRings,RingCount,TPSA,LabuteASA,BalabanJ,BertzCT
4572,B-1308,"acenaphthylene, 1,2-dihydro-5-nitro-","InChI=1S/C12H9NO2/c14-13(15)11-7-6-9-5-4-8-2-1-3-10(11)12(8)9/h1-3,6-7H,4-5H2",CUARLQDWYSRQDF-UHFFFAOYSA-N,[O-][N+](=O)c1ccc2CCc3cccc1c23,-5.3403,0.0,1.0,G1,199.209,2.8466,58.0104,15.0,2.0,0.0,3.0,1.0,74.0,2.0,0.0,1.0,3.0,43.14,86.49009645,2.483859403,564.8389821
950,A-1646,2-octanamidoacetic acid,"InChI=1S/C10H19NO3/c1-2-3-4-5-6-7-9(12)11-8-10(13)14/h2-8H2,1H3,(H,11,12)(H,13,14)",SAVLIIGUQOSOEP-UHFFFAOYSA-N,CCCCCCCC(=O)NCC(O)=O,-2.111537593,0.0,1.0,G1,201.266,1.5477,54.0215,14.0,2.0,2.0,4.0,8.0,82.0,0.0,0.0,0.0,0.0,66.4,84.69087019,3.22476634,180.2059243
4164,B-808,cyclopentylproprionic acid,"InChI=1S/C8H14O2/c9-8(10)6-5-7-3-1-2-4-7/h7H,1-6H2,(H,9,10)",ZRPLANDPDWYOMZ-UHFFFAOYSA-N,OC(=O)CCC1CCCC1,-1.7691,0.0,1.0,G1,142.198,2.0414,38.8278,10.0,1.0,1.0,2.0,3.0,58.0,0.0,1.0,1.0,1.0,37.3,61.24377053,2.066485345,114.4259988
5118,B-1945,"phosphinic acid, dibutyl-, butyl ester","InChI=1S/C12H27O2P/c1-4-7-10-14-15(13,11-8-5-2)12-9-6-3/h4-12H2,1-3H3",GXYBSEVPLCHEBL-UHFFFAOYSA-N,CCCCO[P](=O)(CCCC)CCCC,-1.7166,0.0,1.0,G1,234.32,4.6814,68.0165,15.0,2.0,0.0,3.0,10.0,92.0,0.0,0.0,0.0,0.0,26.3,95.24342967,3.958342451,168.4609327
8641,D-1791,4-hydroxyquinoline,"InChI=1S/C9H7NO/c11-9-5-6-10-8-4-2-1-3-7(8)9/h1-6H,(H,10,11)",PMZDQRJGMBOQBF-UHFFFAOYSA-N,O=C1C=CNc2ccccc12,-1.481,0.0575,2.0,G3,145.161,1.5281,44.5687,11.0,1.0,1.0,2.0,0.0,54.0,2.0,0.0,0.0,2.0,32.86,63.49423773,3.030789901,425.2608209
5791,B-2702,"2,6-dinitro-biphenyl-3-ol","InChI=1S/C12H8N2O5/c15-10-7-6-9(13(16)17)11(12(10)14(18)19)8-4-2-1-3-5-8/h1-7,15H",RAHRBPFKDAZSCJ-UHFFFAOYSA-N,Oc1ccc(c(c2ccccc2)c1[N+]([O-])=O)[N+]([O-])=O,-3.7164,0.0,1.0,G1,260.205,2.8756,66.8516,19.0,5.0,1.0,7.0,3.0,96.0,2.0,0.0,0.0,2.0,106.51,106.5886825,2.849219805,654.6693607
784,A-1362,methyl benzoate,"InChI=1S/C8H8O2/c1-10-8(9)7-5-3-2-4-6-7/h2-6H,1H3",QPJVMBTYPHYUOC-UHFFFAOYSA-N,COC(=O)c1ccccc1,-1.811798351,0.019100825,2.0,G3,136.15,1.4732,37.7815,10.0,2.0,0.0,2.0,1.0,52.0,1.0,0.0,0.0,1.0,26.3,59.43635468,2.852627929,215.9590175
7240,C-150,isoniazid;  isonicotinic acid hydrazide;  inh,"InChI=1S/C6H7N3O/c7-9-6(10)5-1-3-8-4-2-5/h1-4H,7H2,(H,9,10)",QRXWMOHMRWLFEY-UHFFFAOYSA-N,NNC(=O)C1=CC=NC=C1,-0.04,0.0245,2.0,G3,137.142,-0.3149,35.8906,10.0,3.0,2.0,4.0,1.0,52.0,1.0,0.0,0.0,1.0,68.01,58.03740422,2.852627929,221.6943549
259,A-434,4-nonylphenol,"InChI=1S/C15H24O/c1-2-3-4-5-6-7-8-9-14-10-12-15(16)13-11-14/h10-13,16H,2-9H2,1H3",IGFHQQFPSIBGKE-UHFFFAOYSA-N,CCCCCCCCCc1ccc(O)cc1,-4.49802684,0.0,1.0,G1,220.356,4.6853,69.8038,16.0,1.0,1.0,1.0,8.0,90.0,1.0,0.0,0.0,1.0,20.23,99.5101159,2.005636511,263.2683698
2885,A-4828,"3,5,5-trimethylhexan-1-ol","InChI=1S/C9H20O/c1-8(5-6-10)7-9(2,3)4/h8,10H,5-7H2,1-4H3",BODRLKRKPXBDBN-UHFFFAOYSA-N,CC(CCO)CC(C)(C)C,-2.557079916,0.0,1.0,G1,144.258,2.4411,44.9388,10.0,1.0,1.0,1.0,3.0,62.0,0.0,0.0,0.0,0.0,20.23,64.4530217,3.469465595,81.21928095
2414,A-4036,"1,3-dioxo-1,3-dihydro-2-benzofuran-5-carboxylic acid","InChI=1S/C9H4O5/c10-7(11)4-1-2-5-6(3-4)9(13)14-8(5)12/h1-3H,(H,10,11)",SRPWOOOHEPICQU-UHFFFAOYSA-N,OC(=O)c1ccc2C(=O)OC(=O)c2c1,-0.896196315,0.092740888,2.0,G3,192.126,0.6954,43.1473,14.0,4.0,1.0,5.0,1.0,70.0,1.0,0.0,1.0,2.0,80.67,77.91274359,2.607619015,460.2701601
7086,B-4470,promethazine,"InChI=1S/C17H20N2S/c1-13(18(2)3)12-19-14-8-4-6-10-16(14)20-17-11-7-5-9-15(17)19/h4-11,13H,12H2,1-3H3",PWWVAXIEGOYWEE-UHFFFAOYSA-N,CC(CN1c2ccccc2Sc3ccccc13)N(C)C,-4.2597,0.148825095,3.0,G5,284.428,4.2394,87.162,20.0,3.0,0.0,3.0,3.0,104.0,2.0,0.0,1.0,3.0,6.48,124.9501541,2.031569707,563.9439287
9828,G-927,Pencycuron,"InChI=1S/C19H21ClN2O/c20-16-12-10-15(11-13-16)14-22(18-8-4-5-9-18)19(23)21-17-6-2-1-3-7-17/h1-3,6-7,10-13,18H,4-5,8-9,14H2,(H,21,23)",OGYFATSSENRIKG-UHFFFAOYSA-N,Clc1ccc(CN(C2CCCC2)C(=O)Nc3ccccc3)cc1,-5.915,0.06245,2.0,G3,328.843,5.3167,94.7117,23.0,1.0,1.0,4.0,4.0,120.0,2.0,1.0,1.0,3.0,32.34,141.8117452,1.742786972,636.1790056
1372,A-2382,"N,N-dimethyldodecan-1-amine","InChI=1S/C14H31N/c1-4-5-6-7-8-9-10-11-12-13-14-15(2)3/h4-14H2,1-3H3",YWFWDNVOPHGWMX-UHFFFAOYSA-N,CCCCCCCCCCCCN(C)C,-4.426122744,0.403653114,3.0,G5,213.409,4.4689,70.398,15.0,1.0,0.0,1.0,11.0,92.0,0.0,0.0,0.0,0.0,3.24,97.24333219,2.86681313,109.9063278
3257,A-5364,potassium cyanosulfanide,InChI=1S/CHNS.K/c2-1-3;/h3H;/q;+1/p-1,ZNNZYHKDIALBAK-UHFFFAOYSA-M,[K+].[S-]C#N,1.012409699,0.0,1.0,G1,97.183,-2.98162,12.978,4.0,2.0,0.0,3.0,0.0,16.0,0.0,0.0,0.0,0.0,23.79,73.20946207,0.0,29.509775
5948,B-2880,sparticide,InChI=1S/C10H4Cl2FNO2/c11-7-8(12)10(16)14(9(7)15)6-3-1-5(13)2-4-6/h1-4H,IPENDKRRWFURRE-UHFFFAOYSA-N,Fc1ccc(cc1)N2C(=O)C(=C(Cl)C2=O)Cl,-4.6442,0.0,1.0,G1,260.051,2.3881,57.625,16.0,2.0,0.0,6.0,1.0,82.0,1.0,0.0,1.0,2.0,37.38,100.0506831,2.419005097,486.055244
8731,E-322,caprylic_acid,"InChI=1S/C8H16O2/c1-2-3-4-5-6-7-8(9)10/h2-7H2,1H3,(H,9,10)",WWZKQHOCKIZLMA-UHFFFAOYSA-N,O=C(O)CCCCCCC,-2.3,0.026500529,3.0,G5,144.214,2.4315,41.0118,10.0,1.0,1.0,2.0,6.0,60.0,0.0,0.0,0.0,0.0,37.3,62.24960168,2.838589122,89.25838097
4415,B-1119,"1,2-ethylene dibromide",InChI=1S/C2H2Br2/c3-1-2-4/h1-2H/b2-1-,UWTUEMKLYAGTNQ-UPHRSURJSA-N,Br\C=C/Br,-1.3195,0.0,1.0,G1,185.846,2.2474,26.994,4.0,0.0,0.0,2.0,0.0,24.0,0.0,0.0,0.0,0.0,0.0,42.14968532,2.549193338,19.21928095
8775,E-616,quanidinoacetic_acid,"InChI=1S/C3H7N3O2/c4-3(5)6-1-2(7)8/h1H2,(H,7,8)(H4,4,5,6)",BPMFZUMJYQTVII-UHFFFAOYSA-N,NC(=N)NCC(=O)O,-1.51,0.0,1.0,G1,117.108,-1.44593,27.5526,8.0,2.0,4.0,5.0,2.0,46.0,0.0,0.0,0.0,0.0,99.2,45.99999499,3.181845867,97.09616281
9563,F-982,Benzil dioxime,"InChI=1S/C14H12N2O2/c17-15-13(11-7-3-1-4-8-11)14(16-18)12-9-5-2-6-10-12/h1-10,17-18H",JJZONEUCDUQVGR-UHFFFAOYSA-N,ON=C(C1=CC=CC=C1)C(=NO)C1=CC=CC=C1,-5.9,0.0,1.0,G1,240.262,2.7434,69.531,18.0,4.0,2.0,4.0,3.0,90.0,2.0,0.0,0.0,2.0,65.18,104.505571,2.454916804,509.3625674
7291,C-283,pentafluorophenol,InChI=1S/C6HF5O/c7-1-2(8)4(10)6(12)5(11)3(1)9/h12H,XBNGYFFABRKICK-UHFFFAOYSA-N,OC1=C(F)C(=C(F)C(=C1F)F)F,-0.52,0.0,1.0,G1,184.063,2.0877,27.8968,12.0,1.0,1.0,6.0,0.0,66.0,1.0,0.0,0.0,1.0,20.23,63.05331389,3.603567451,230.2032248
1162,A-2001,1-(4-methoxyphenyl)-2-[(3-methoxyphenyl)sulfanyl]ethan-1-one,"InChI=1S/C16H16O3S/c1-18-13-8-6-12(7-9-13)16(17)11-20-15-5-3-4-14(10-15)19-2/h3-10H,11H2,1-2H3",CXSKVBXJDSVPKS-UHFFFAOYSA-N,COc1ccc(cc1)C(=O)CSc2cccc(OC)c2,-5.284725265,0.048983507,4.0,G5,288.368,3.6788,81.0425,20.0,4.0,0.0,4.0,6.0,104.0,2.0,0.0,0.0,2.0,35.53,122.4599884,1.965193272,578.5307856
5699,B-2598,"1,3-benzenedicarboxylic acid, 2-nitro-","InChI=1S/C8H5NO6/c10-7(11)4-2-1-3-5(8(12)13)6(4)9(14)15/h1-3H,(H,10,11)(H,12,13)",CAHWDGJDQYAFHM-UHFFFAOYSA-N,OC(=O)c1cccc(C(O)=O)c1[N+]([O-])=O,-1.9901,0.0,1.0,G1,211.129,0.9912,47.015,15.0,4.0,2.0,7.0,3.0,78.0,1.0,0.0,0.0,1.0,117.74,82.72577478,3.555945129,420.1951583
3889,B-370,"1,3-butanedione, 1-phenyl-","InChI=1S/C10H10O2/c1-8(11)7-10(12)9-5-3-2-4-6-9/h2-6H,7H2,1H3",CVBUKMMMRLOKQR-UHFFFAOYSA-N,CC(=O)CC(=O)c1ccccc1,-2.6268,0.0,1.0,G1,162.188,1.8484,46.0705,12.0,2.0,0.0,2.0,3.0,62.0,1.0,0.0,0.0,1.0,34.14,71.21421578,2.725078186,287.966706
6648,B-3727,naphthaleneacetic acid,"InChI=1S/C12H10O2/c13-12(14)8-10-6-3-5-9-4-1-2-7-11(9)10/h1-7H,8H2,(H,13,14)",PRPINYUDVPFIRX-UHFFFAOYSA-N,OC(=O)Cc1cccc2ccccc12,-2.6468,0.0,1.0,G1,186.21,2.4669,55.2878,14.0,1.0,1.0,2.0,2.0,70.0,2.0,0.0,0.0,2.0,37.3,81.79870773,2.587530917,469.2103532
4966,B-1779,"2-propenamide, 3-(2-nitrophenyl)-","InChI=1S/C9H8N2O3/c10-9(12)6-5-7-3-1-2-4-8(7)11(13)14/h1-6H,(H2,10,12)",RASLWNGTMHFPIQ-UHFFFAOYSA-N,NC(=O)C=Cc1ccccc1[N+]([O-])=O,-1.2837,0.0,1.0,G1,192.174,1.0933,51.3248,14.0,3.0,1.0,5.0,3.0,72.0,1.0,0.0,0.0,1.0,86.23,79.99101495,3.074465286,398.7984697
4613,B-1359,helicin,"InChI=1S/C13H16O7/c14-5-7-3-1-2-4-8(7)19-13-12(18)11(17)10(16)9(6-15)20-13/h1-5,9-13,15-18H,6H2/t9-,10-,11+,12-,13-/m1/s1",BGOFCVIGEYGEOF-UJPOAAIJSA-N,OC[C@H]1O[C@@H](Oc2ccccc2C=O)[C@H](O)[C@@H](O)[C@@H]1O,-1.1985,0.0,1.0,G1,284.264,-1.3222,66.2247,20.0,7.0,4.0,7.0,4.0,110.0,1.0,1.0,1.0,2.0,116.45,114.5457143,2.170578691,461.787823
1622,A-2712,"Decanoic acid, mixed diesters with octanoic acid and propylene glycol","InChI=1S/C10H20O2.C8H16O2.C3H8O2/c1-2-3-4-5-6-7-8-9-10(11)12;1-2-3-4-5-6-7-8(9)10;1-3(5)2-4/h2-9H2,1H3,(H,11,12);2-7H2,1H3,(H,9,10);3-5H,2H2,1H3",YZWQUQVFVLJWCS-UHFFFAOYSA-N,CCCCCCCCCC(O)=O.CCCCCCCC(O)=O.CC(O)CO,-6.894954848,0.0,1.0,G1,392.577,5.0027,110.0242,27.0,4.0,4.0,6.0,15.0,164.0,0.0,0.0,0.0,0.0,115.06,165.5497348,-3.47e-07,305.0469574
160,A-267,"sodium 2-{2,5-dichloro-4-[(E)-2-(2-methyl-1H-indol-3-yl)diazen-1-yl]benzenesulfonamido}ethane-1-sulfonate","InChI=1S/C17H16Cl2N4O5S2.Na/c1-10-17(11-4-2-3-5-14(11)21-10)23-22-15-8-13(19)16(9-12(15)18)30(27,28)20-6-7-29(24,25)26;/h2-5,8-9,20,22H,6-7H2,1H3,(H,24,25,26);/q;+1/p-1/b23-17+;",IQWBFKOZXPTGNT-YFZNFVDXSA-M,[Na+].CC\1=Nc2ccccc2C1=N/Nc3cc(Cl)c(cc3Cl)[S](=O)(=O)NCC[S]([O-])(=O)=O,-3.756179517,0.092818288,2.0,G3,513.36,-0.2569,115.5854,31.0,8.0,2.0,14.0,7.0,160.0,2.0,0.0,1.0,3.0,140.12,211.5772261,3.41e-06,1281.422245
7094,B-4486,trifluorperazine,"InChI=1S/C21H24F3N3S/c1-25-11-13-26(14-12-25)9-4-10-27-17-5-2-3-6-19(17)28-20-8-7-16(15-18(20)27)21(22,23)24/h2-3,5-8,15H,4,9-14H2,1H3",ZEWQUBUPAILYHI-UHFFFAOYSA-N,CN1CCN(CCCN2c3ccccc3Sc4ccc(cc24)C(F)(F)F)CC1,-4.5238,0.0,1.0,G1,407.505,4.9456,107.569,28.0,4.0,0.0,7.0,4.0,150.0,2.0,1.0,2.0,4.0,9.72,167.6605313,1.549600115,831.8857872
5094,B-1920,"4,4'-dicyano-4,4'azo-di-valeric acid","InChI=1S/C12H16N4O4/c1-11(7-13,5-3-9(17)18)15-16-12(2,8-14)6-4-10(19)20/h3-6H2,1-2H3,(H,17,18)(H,19,20)/p-2/t11-,12+",VFXXTYGQYWRHJP-TXEJJXNPSA-L,C[C@@](CCC([O-])=O)(N=N[C@](C)(CCC([O-])=O)C#N)C#N,-2.0083,0.266159841,2.0,G3,278.268,-0.93664,61.374,20.0,8.0,0.0,8.0,8.0,108.0,0.0,0.0,0.0,0.0,152.56,115.8970632,4.920421083,446.6662406
6679,B-3785,4-iodobenzoic acid,"InChI=1S/C7H5IO2/c8-6-3-1-5(2-4-6)7(9)10/h1-4H,(H,9,10)",GHICCUXQJBDNRN-UHFFFAOYSA-N,OC(=O)c1ccc(I)cc1,-3.9631,0.03845,2.0,G3,248.019,1.9894,46.1183,10.0,1.0,1.0,3.0,1.0,52.0,1.0,0.0,0.0,1.0,37.3,72.01393921,3.003400685,240.2879489
5626,B-2514,bensultap,"InChI=1S/C17H21NO4S4/c1-18(2)15(13-23-25(19,20)16-9-5-3-6-10-16)14-24-26(21,22)17-11-7-4-8-12-17/h3-12,15H,13-14H2,1-2H3",YFXPPSKYMBTNAV-UHFFFAOYSA-N,CN(C)C(CS[S](=O)(=O)c1ccccc1)CS[S](=O)(=O)c2ccccc2,-5.76,0.0,1.0,G1,431.626,3.1608,109.6466,26.0,7.0,0.0,9.0,9.0,142.0,2.0,0.0,0.0,2.0,71.52,162.3699826,2.014935594,824.7937659
8958,F-42,"3,9-di(propan-2-yl)-2,4,8,10-tetraoxaspiro[5.5]undecane","InChI=1S/C13H24O4/c1-9(2)11-14-5-13(6-15-11)7-16-12(10(3)4)17-8-13/h9-12H,5-8H2,1-4H3",NEBWHJITDZAZPU-UHFFFAOYSA-N,CC(C)C1OCC2(CO1)COC(C(C)C)OC2,-3.11,0.0,1.0,G1,244.331,2.0306,63.493,17.0,4.0,0.0,4.0,2.0,100.0,0.0,2.0,2.0,2.0,36.92,103.561075,1.839535053,206.2942423
4744,B-1520,"pyrimidine, 2-(methylthio)-","InChI=1S/C5H6N2S/c1-8-5-6-3-2-4-7-5/h2-4H,1H3",FOEMIZSFFWGXHX-UHFFFAOYSA-N,CSc1ncccn1,-0.402,0.0,1.0,G1,126.184,1.1985,33.813,8.0,3.0,0.0,3.0,1.0,42.0,1.0,0.0,0.0,1.0,25.78,52.35875122,2.832085835,151.7746584
2391,A-3992,"1,3-dioxepane",InChI=1S/C5H10O2/c1-2-4-7-5-6-3-1/h1-5H2,CZLMRJZAHXYRIX-UHFFFAOYSA-N,C1CCOCOC1,0.41078966,0.028582753,2.0,G3,102.133,0.7709,26.005,7.0,2.0,0.0,2.0,0.0,42.0,0.0,1.0,1.0,1.0,18.46,43.42027879,2.041666667,25.69332843
3819,B-270,chlormezanone,"InChI=1S/C11H12ClNO3S/c1-13-10(14)6-7-17(15,16)11(13)8-2-4-9(12)5-3-8/h2-5,11H,6-7H2,1H3",WEQAYVWKMWHEJO-UHFFFAOYSA-N,CN1C(c2ccc(Cl)cc2)[S](=O)(=O)CCC1=O,-2.0394,0.0,1.0,G1,273.741,1.6155,65.3668,17.0,3.0,0.0,6.0,1.0,92.0,1.0,1.0,1.0,2.0,54.45,105.1003029,2.46004627,538.3399004
8053,C-1953,n-cyclohexyl-n-methyl-2-(benzoyloxy)acetamide,"InChI=1S/C16H21NO3/c1-17(14-10-6-3-7-11-14)15(18)12-20-16(19)13-8-4-2-5-9-13/h2,4-5,8-9,14H,3,6-7,10-12H2,1H3",PDIJPBODFJXKMS-UHFFFAOYSA-N,CN(C1CCCCC1)C(=O)COC(=O)C2=CC=CC=C2,-3.29,0.0,1.0,G1,275.348,2.6345,76.3675,20.0,3.0,0.0,4.0,4.0,108.0,1.0,1.0,1.0,2.0,46.61,119.2714162,1.807022629,452.049606
9783,G-542,Cyclooctanol,"InChI=1S/C8H16O/c9-8-6-4-2-1-3-5-7-8/h8-9H,1-7H2",FHADSMKORVFYOS-UHFFFAOYSA-N,OC1CCCCCCC1,-1.29,0.0,1.0,G1,128.215,2.0916,38.3258,9.0,1.0,1.0,1.0,0.0,54.0,0.0,1.0,1.0,1.0,20.23,57.08224843,2.124788507,62.96788691
1458,A-2506,"1,1-diethoxy-3,7-dimethylocta-2,6-diene","InChI=1S/C14H26O2/c1-6-15-14(16-7-2)11-13(5)10-8-9-12(3)4/h9,11,14H,6-8,10H2,1-5H3/b13-11+",NTXGFKWLJFHGGJ-ACCUITESSA-N,CCOC(OCC)\C=C(C)\CCC=C(C)C,-2.354799685,0.0,1.0,G1,226.36,4.0782,69.462,16.0,2.0,0.0,2.0,8.0,94.0,0.0,0.0,0.0,0.0,18.46,100.3313829,4.082675095,218.8898406
2940,A-4930,"2-tert-butyl-4,6-dimethylphenol","InChI=1S/C12H18O/c1-8-6-9(2)11(13)10(7-8)12(3,4)5/h6-7,13H,1-5H3",OPLCSTZDXXUYDU-UHFFFAOYSA-N,Cc1cc(C)c(O)c(c1)C(C)(C)C,-3.171909199,0.0,1.0,G1,178.275,3.30654,56.2808,13.0,1.0,1.0,1.0,0.0,72.0,1.0,0.0,0.0,1.0,20.23,80.41528956,3.371806866,318.631741
9097,F-302,Methyl 4-nitrobenzoate,"InChI=1S/C8H7NO4/c1-13-8(10)6-2-4-7(5-3-6)9(11)12/h2-5H,1H3",YOJAHJGBFDPSDI-UHFFFAOYSA-N,COC(=O)C1=CC=C(C=C1)[N+](=O)[O-],-3.04,0.0,1.0,G1,181.147,1.3814,44.4359,13.0,4.0,0.0,5.0,2.0,68.0,1.0,0.0,0.0,1.0,69.44,74.0893304,2.934041941,330.5021927
3865,B-336,4-chloro-2-nitrophenol,"InChI=1S/C6H4ClNO3/c7-4-1-2-6(9)5(3-4)8(10)11/h1-3,9H",NWSIFTLPLKCTSX-UHFFFAOYSA-N,Oc1ccc(Cl)cc1[N+]([O-])=O,-3.0902,0.0,1.0,G1,173.555,1.9538,39.7712,11.0,3.0,1.0,5.0,1.0,58.0,1.0,0.0,0.0,1.0,63.37,67.18187882,3.23220887,299.8789117
6871,B-4148,"5,6,7,8-tetrahydro-2-naphthol","InChI=1S/C10H12O/c11-10-6-5-8-3-1-2-4-9(8)7-10/h5-7,11H,1-4H2",UMKXSOXZAXIOPJ-UHFFFAOYSA-N,Oc1ccc2CCCCc2c1,-1.9948,0.0,1.0,G1,148.205,2.271,44.7488,11.0,1.0,1.0,1.0,0.0,58.0,1.0,0.0,1.0,2.0,20.23,66.67957418,2.430547559,265.5753291
4607,B-1349,"1,3-benzenediol, 4,6-dinitro-","InChI=1S/C6H4N2O6/c9-5-2-6(10)4(8(13)14)1-3(5)7(11)12/h1-2,9-10H",MBXIRNHACKAGPA-UHFFFAOYSA-N,Oc1cc(O)c(cc1[N+]([O-])=O)[N+]([O-])=O,-3.4086,0.0,1.0,G1,200.106,0.9142,43.0804,14.0,6.0,2.0,8.0,2.0,74.0,1.0,0.0,0.0,1.0,126.74,76.32582207,3.417888615,379.7779107
9028,F-173,2-acetamidopentanedioic acid,"InChI=1S/C7H11NO5/c1-4(9)8-5(7(12)13)2-3-6(10)11/h5H,2-3H2,1H3,(H,8,9)(H,10,11)(H,12,13)",RFMMMVDNIPUKGG-UHFFFAOYSA-N,CC(=O)NC(CCC(=O)O)C(=O)O,-0.71,0.0,1.0,G1,189.167,-0.5595,42.1103,13.0,3.0,3.0,6.0,5.0,74.0,0.0,0.0,0.0,0.0,103.7,74.5517997,4.023176701,224.9227914
3546,A-5939,oxopalladium,InChI=1S/O.Pd/q-2;+2,JQPTYAILLJKUCY-UHFFFAOYSA-N,[O--].[Pd++],-8.062542962,0.0,1.0,G1,122.419,-0.1213,0.6865,2.0,0.0,0.0,2.0,0.0,16.0,0.0,0.0,0.0,0.0,28.5,26.62849747,0.0,2.0
3589,A-6015,"2-[N-(2-cyanoethyl)-4-[(2,6-dichloro-4-nitrophenyl)azo]anilino]ethyl acetate","InChI=1S/C19H17Cl2N5O4/c1-13(27)30-10-9-25(8-2-7-22)15-5-3-14(4-6-15)23-24-19-17(20)11-16(26(28)29)12-18(19)21/h3-6,11-12H,2,8-10H2,1H3",ROPYWXVRNREIQD-UHFFFAOYSA-N,CC(=O)OCCN(CCC#N)c1ccc(cc1)N=Nc2c(Cl)cc(cc2Cl)[N+]([O-])=O,-7.051424595,0.0,1.0,G1,450.282,5.60018,112.8104,30.0,8.0,0.0,11.0,9.0,156.0,2.0,0.0,0.0,2.0,121.19,182.1768588,2.145379686,966.4046657
5746,B-2646,fenfuram,"InChI=1S/C12H11NO2/c1-9-11(7-8-15-9)12(14)13-10-5-3-2-4-6-10/h2-8H,1H3,(H,13,14)",JFSPBVWPKOEZCB-UHFFFAOYSA-N,Cc1occc1C(=O)Nc2ccccc2,-3.3037,0.0,1.0,G1,201.225,2.84032,57.8402,15.0,2.0,1.0,3.0,2.0,76.0,2.0,0.0,0.0,2.0,42.24,87.7240951,2.148161563,459.4841754
9777,G-515,"cis-1,2-Dimethylcyclohexane","InChI=1S/C8H16/c1-7-5-3-4-6-8(7)2/h7-8H,3-6H2,1-2H3",KVZJLSYJROEPSQ-UHFFFAOYSA-N,C/C1CCCCC1\C,-4.3,0.023723453,3.0,G5,112.216,2.8326,36.796,8.0,0.0,0.0,0.0,0.0,48.0,0.0,1.0,1.0,1.0,0.0,52.28801468,2.279400271,56.4385619
6164,B-3122,alpha-cypermethrin,"InChI=1S/C22H19Cl2NO3/c1-22(2)17(12-19(23)24)20(22)21(26)28-18(13-25)14-7-6-10-16(11-14)27-15-8-4-3-5-9-15/h3-12,17-18,20H,1-2H3/t17-,18?,20-/m0/s1",KAATUXNTWXVJKI-DXCJPMOASA-N,CC1(C)[C@@H](C=C(Cl)Cl)[C@H]1C(=O)OC(C#N)c2cccc(Oc3ccccc3)c2,-7.6194,0.0,1.0,G1,416.304,6.17798,107.954,28.0,4.0,0.0,6.0,6.0,144.0,2.0,1.0,1.0,3.0,59.32,173.830209,1.721481495,930.2980937
6824,B-4073,"3,3'-dichlorobiphenyl",InChI=1S/C12H8Cl2/c13-11-5-1-3-9(7-11)10-4-2-6-12(14)8-10/h1-8H,KTXUOWUHFLBZPW-UHFFFAOYSA-N,Clc1cccc(c1)c2cccc(Cl)c2,-5.7983,0.0,1.0,G1,223.102,4.6604,61.898,14.0,0.0,0.0,2.0,1.0,70.0,2.0,0.0,0.0,2.0,0.0,93.09502978,2.492123645,406.0796467
4533,B-1259,n-butyl propionate,"InChI=1S/C7H14O2/c1-3-5-6-9-7(8)4-2/h3-6H2,1-2H3",BTMVHUNTONAYDX-UHFFFAOYSA-N,CCCCOC(=O)CC,-1.9385,0.0,1.0,G1,130.187,1.7397,36.158,9.0,2.0,0.0,2.0,4.0,54.0,0.0,0.0,0.0,0.0,26.3,56.20397104,2.973062408,78.98533617
7720,C-1357,phenyl  5-fluorouracil-1-carboxylate;  1-phenyloxycarbonyl-5-fluorouracil,"InChI=1S/C11H7FN2O4/c12-8-6-14(10(16)13-9(8)15)11(17)18-7-4-2-1-3-5-7/h1-6H,(H,13,15,16)",HPLGRDDPZODNAW-UHFFFAOYSA-N,FC1=CN(C(=O)NC1=O)C(=O)OC2=CC=CC=C2,-2.44,0.0,1.0,G1,250.185,0.7228,59.1447,18.0,5.0,1.0,7.0,1.0,92.0,2.0,0.0,0.0,2.0,81.16,99.26635382,2.329744483,690.1796676
7591,C-1074,malononitrile;  dicyanomethane,InChI=1S/C3H2N2/c4-2-1-3-5/h1H2,CUONGYYJJVDODC-UHFFFAOYSA-N,N#CCC#N,0.25,0.02695,2.0,G3,66.063,0.42366,15.843,5.0,2.0,0.0,2.0,0.0,24.0,0.0,0.0,0.0,0.0,47.58,30.25429462,2.857271683,70.04663564
7372,C-577,4-aminoantipyrine;  4-aminophenazone;  ampyrone,"InChI=1S/C11H13N3O/c1-8-10(12)11(15)14(13(8)2)9-6-4-3-5-7-9/h3-7H,12H2,1-2H3",RLFWWDJHLFCNIJ-UHFFFAOYSA-N,CN1N(C2=CC=CC=C2)C(=O)C(=C1C)N,0.31,0.505916438,3.0,G4,203.245,1.06662,60.1594,15.0,4.0,1.0,4.0,1.0,78.0,2.0,0.0,0.0,2.0,52.95,87.53699929,2.749966249,536.9509442
7286,C-266,"spiro-5,5-decamethylenebarbituric acid","InChI=1S/C14H22N2O3/c17-11-14(12(18)16-13(19)15-11)9-7-5-3-1-2-4-6-8-10-14/h1-10H2,(H2,15,16,17,18,19)",COBKAOXSLALTLT-UHFFFAOYSA-N,O=C1NC(=O)C2(CCCCCCCCCC2)C(=O)N1,-4.59,0.0,1.0,G1,266.341,2.2534,70.2844,19.0,3.0,2.0,5.0,0.0,106.0,0.0,2.0,2.0,2.0,75.27,113.0561269,2.124190872,344.8873664
6937,B-4244,chlorbromuron,"InChI=1S/C9H10BrClN2O2/c1-13(15-2)9(14)12-6-3-4-7(10)8(11)5-6/h3-5H,1-2H3,(H,12,14)",NLYNUTMZTCLNOO-UHFFFAOYSA-N,CON(C)C(=O)Nc1ccc(Br)c(Cl)c1,-3.9236,0.0,1.0,G1,293.548,3.1276,62.9427,15.0,2.0,1.0,6.0,2.0,82.0,1.0,0.0,0.0,1.0,41.57,101.235845,2.729689123,373.1300188
7739,C-1392,azamethiphos,"InChI=1S/C9H10ClN2O5PS/c1-15-18(14,16-2)19-5-12-8-7(17-9(12)13)3-6(10)4-11-8/h3-4H,5H2,1-2H3",VNKBTWQZTQIWDV-UHFFFAOYSA-N,CO[P](=O)(OC)SCN1C(=O)OC2=CC(=CN=C12)Cl,-2.47,0.0,1.0,G1,324.682,2.7345,72.4945,19.0,8.0,0.0,10.0,5.0,104.0,2.0,0.0,0.0,2.0,83.56,116.6780046,2.333386224,691.4650631
997,A-1727,benzyl butanoate,"InChI=1S/C11H14O2/c1-2-6-11(12)13-9-10-7-4-3-5-8-10/h3-5,7-8H,2,6,9H2,1H3",VONGZNXBKCOUHB-UHFFFAOYSA-N,CCCC(=O)OCc1ccccc1,-3.117444335,0.158343549,2.0,G3,178.231,2.5299,51.146,13.0,2.0,0.0,2.0,4.0,70.0,1.0,0.0,0.0,1.0,26.3,78.53118102,2.310042823,254.0526058
5561,B-2444,"1,6-dioxaspiro[4,4]nonane, 2,2,7,7-tetramethyl-","InChI=1S/C11H20O2/c1-9(2)5-7-11(12-9)8-6-10(3,4)13-11/h5-8H2,1-4H3",NJYRFKSWBDHCQL-UHFFFAOYSA-N,CC1(C)CCC2(CCC(C)(C)O2)O1,-1.9644,0.0,1.0,G1,184.279,2.8607,51.527,13.0,2.0,0.0,2.0,0.0,76.0,0.0,2.0,2.0,2.0,18.46,80.60410032,2.098094569,194.1301686
760,A-1327,"4-[1,1,1,3,3,3-hexafluoro-2-(4-hydroxyphenyl)propan-2-yl]phenol","InChI=1S/C15H10F6O2/c16-14(17,18)13(15(19,20)21,9-1-5-11(22)6-2-9)10-3-7-12(23)8-4-10/h1-8,22-23H",ZFVMWEVVKGLCIJ-UHFFFAOYSA-N,Oc1ccc(cc1)C(c2ccc(O)cc2)(C(F)(F)F)C(F)(F)F,-3.179502969,0.0,1.0,G1,336.231,4.5085,69.1036,23.0,2.0,2.0,8.0,2.0,124.0,2.0,0.0,0.0,2.0,40.46,126.1650036,2.861685165,609.5986689
6146,B-3103,"2,4(1h,3h)-pyrimidinedione, 5-aminodihydro-1,3-d","InChI=1S/C6H9N3O2S/c1-8-4(10)3(7)5(12)9(2)6(8)11/h3H,7H2,1-2H3",CAMGETFHWUKWEO-UHFFFAOYSA-N,CN1C(=O)C(N)C(=S)N(C)C1=O,-1.117,0.0,1.0,G1,187.224,-0.8351,46.5024,12.0,4.0,1.0,6.0,0.0,66.0,0.0,1.0,1.0,1.0,66.64,75.09951293,2.989267462,204.7248251
8587,D-1450,"1,2-dibromo-3-chloropropane","InChI=1S/C3H5Br2Cl/c4-1-3(5)2-6/h3H,1-2H2",WBEJYOJJBDISQU-UHFFFAOYSA-N,ClCC(Br)CBr,-2.374,0.0452,2.0,G3,236.334,2.3836,37.229,6.0,0.0,0.0,3.0,2.0,38.0,0.0,0.0,0.0,0.0,0.0,59.50749669,2.754184786,27.97416845