,ID,Name,InChI,InChIKey,SMILES,Solubility,SD,Ocurrences,Group,MolWt,MolLogP,MolMR,HeavyAtomCount,NumHAcceptors,NumHDonors,NumHeteroatoms,NumRotatableBonds,NumValenceElectrons,NumAromaticRings,NumSaturatedRings,NumAliphaticRings,RingCount,TPSA,LabuteASA,BalabanJ,BertzCT
8458,C-2538,"4-methyl-5-(2-nitrobenzenesulfonylimido)-delta2-1,3,4-thiadiazoline-2-sulfonamide","InChI=1S/C9H9N5O6S3/c1-13-8(21-9(11-13)22(10,17)18)12-23(19,20)7-5-3-2-4-6(7)14(15)16/h2-5H,1H3,(H2,10,17,18)",QHRGLLUMIFLPBM-UHFFFAOYSA-N,CN1N=C(SC1=N[S](=O)(=O)C2=CC=CC=C2[N+]([O-])=O)[S](N)(=O)=O,-2.79,0.0,1.0,G1,379.401,-0.6732,78.3034,23.0,9.0,1.0,14.0,4.0,124.0,2.0,0.0,0.0,2.0,167.62,133.5212644,2.68330472,1049.340918
8653,D-1860,"benzenesulfonamide, 4-amino-n-(6-ethoxy-3-pyrid-","InChI=1S/C12H14N4O3S/c1-2-19-12-8-7-11(14-15-12)16-20(17,18)10-5-3-9(13)4-6-10/h3-8H,2,13H2,1H3,(H,14,16)",FFJIWWBSBCOKLS-UHFFFAOYSA-N,CCOc1ccc(N[S](=O)(=O)c2ccc(N)cc2)nn1,-2.427,0.0,1.0,G1,294.336,1.2583,74.8639,20.0,6.0,2.0,8.0,5.0,106.0,2.0,0.0,0.0,2.0,107.2,116.3902051,2.171559069,668.8535522
2387,A-3987,copper(+1) cation sulfide,InChI=1S/2Cu.S/q2*+1;-2,AQMRBJNRFUQADD-UHFFFAOYSA-N,[SH--].[Cu+].[Cu+],-4.204573041,0.0,1.0,G1,160.167,-0.2751,8.76,3.0,0.0,0.0,3.0,0.0,29.0,0.0,0.0,0.0,0.0,0.0,47.75257276,0.0,2.754887502
4991,B-1809,msma,"InChI=1S/CH5AsO3.Na/c1-2(3,4)5;/h1H3,(H2,3,4,5);/q;+1/p-1",JITOKQVGRJSHHA-UHFFFAOYSA-M,[Na+].C[As](O)([O-])=O,0.554,0.0,1.0,G1,161.952,-4.6578,14.5233,6.0,2.0,1.0,5.0,0.0,32.0,0.0,0.0,0.0,0.0,60.36,61.03745143,0.0,56.92878689
4699,B-1461,"ethanesulfonothioic acid, s-ethyl ester","InChI=1S/C4H10O2S2/c1-3-7-8(5,6)4-2/h3-4H2,1-2H3",OICGFSUWXCJLCO-UHFFFAOYSA-N,CCS[S](=O)(=O)CC,-1.109,0.0,1.0,G1,154.256,1.0892,37.5928,8.0,3.0,0.0,4.0,3.0,50.0,0.0,0.0,0.0,0.0,34.14,53.98254786,3.755111608,136.1173001
1716,A-2836,di(phenyl)methanimine,"InChI=1S/C13H11N/c14-13(11-7-3-1-4-8-11)12-9-5-2-6-10-12/h1-10,14H",SXZIXHOMFPUIRK-UHFFFAOYSA-N,N=C(c1ccccc1)c2ccccc2,-2.781128006,0.0,1.0,G1,181.238,3.10277,58.8147,14.0,1.0,1.0,1.0,2.0,68.0,2.0,0.0,0.0,2.0,23.85,83.53879044,2.348637605,376.0032554
9046,F-199,decyl 2-hydroxypropanoate,"InChI=1S/C13H26O3/c1-3-4-5-6-7-8-9-10-11-16-13(15)12(2)14/h12,14H,3-11H2,1-2H3",FUGCGCXGFWNOSY-UHFFFAOYSA-N,CCCCCCCCCCOC(=O)C(C)O,-3.06,0.0,1.0,G1,230.348,3.0511,65.2498,16.0,3.0,1.0,3.0,10.0,96.0,0.0,0.0,0.0,0.0,46.53,99.18785748,3.068551514,166.5606417
6519,B-3506,"benzenesulfonamide, 4-(5-hydroxypentyl)-","InChI=1S/C11H17NO3S/c12-16(14,15)11-7-5-10(6-8-11)4-2-1-3-9-13/h5-8,13H,1-4,9H2,(H2,12,14,15)",KFRDUIZQGPSJJM-UHFFFAOYSA-N,N[S](=O)(=O)c1ccc(CCCCCO)cc1,-1.9712,0.0,1.0,G1,243.328,1.0391,62.456,16.0,3.0,2.0,5.0,6.0,90.0,1.0,0.0,0.0,1.0,80.39,96.15101403,2.521595805,411.360745
1905,A-3137,2-methylbut-3-yn-2-amine,"InChI=1S/C5H9N/c1-4-5(2,3)6/h1H,6H2,2-3H3",VUGCBIWQHSRQBZ-UHFFFAOYSA-N,CC(C)(N)C#C,1.031655988,0.0,1.0,G1,83.134,0.3569,27.0994,6.0,1.0,1.0,1.0,0.0,34.0,0.0,0.0,0.0,0.0,26.02,38.53813557,3.552734355,70.91968454
4253,B-928,isopestox,"InChI=1S/C6H16FN2OP/c1-5(2)8-11(7,10)9-6(3)4/h5-6H,1-4H3,(H2,8,9,10)",UOSHUBFBCPGQAY-UHFFFAOYSA-N,CC(C)N[P](F)(=O)NC(C)C,-0.3574,0.0,1.0,G1,182.179,2.06,45.2579,11.0,1.0,2.0,5.0,4.0,68.0,0.0,0.0,0.0,0.0,41.13,67.3535808,3.907836095,146.6612729
4874,B-1677,2-methyl-4-chlorophenol,"InChI=1S/C7H7ClO/c1-5-4-6(8)2-3-7(5)9/h2-4,9H,1H3",RHPUJHQBPORFGV-UHFFFAOYSA-N,Cc1cc(Cl)ccc1O,-1.552,0.120173002,2.0,G3,142.585,2.35402,37.8538,9.0,1.0,1.0,2.0,0.0,48.0,1.0,0.0,0.0,1.0,20.23,58.89384521,3.17167803,220.1561776
5530,B-2404,isonicotinic acid n-oxide,"InChI=1S/C6H5NO3/c8-6(9)5-1-3-7(10)4-2-5/h1-4H,(H,8,9)",QCWTWMJMLSKQCJ-UHFFFAOYSA-N,OC(=O)c1cc[n+]([O-])cc1,-1.102,0.0,1.0,G1,139.11,0.0182,32.3613,10.0,2.0,1.0,4.0,1.0,52.0,1.0,0.0,0.0,1.0,64.24,56.92999281,3.003400685,241.6747709
9134,F-369,(4Z)-4-(Pyridine-4-carbonylhydrazinylidene)pentanoic acid,"InChI=1S/C11H13N3O3/c1-8(2-3-10(15)16)13-14-11(17)9-4-6-12-7-5-9/h4-7H,2-3H2,1H3,(H,14,17)(H,15,16)",VOXWRPFVWYTAMA-UHFFFAOYSA-N,CC(CCC(=O)O)=NNC(=O)C1=CC=NC=C1,-1.59,0.0,1.0,G1,235.243,1.0521,61.682,17.0,4.0,2.0,6.0,5.0,90.0,1.0,0.0,0.0,1.0,91.65,98.37330243,2.471010023,428.8476133
6375,B-3355,"1,2,4-thiadiazol-5-amine, 3-methoxy-","InChI=1S/C3H5N3OS/c1-7-3-5-2(4)8-6-3/h1H3,(H2,4,5,6)",OJCCUUWVUOCZAA-UHFFFAOYSA-N,COc1nsc(N)n1,-1.2427,0.0,1.0,G1,131.16,0.1289,30.8734,8.0,5.0,1.0,5.0,1.0,44.0,1.0,0.0,0.0,1.0,61.03,50.47053038,2.837541431,174.7913934
7745,C-1407,"triazoxide;  7-chloro-3-(1h-imidazol-1-yl)-1,2,4-benzotriazine 1-oxide",InChI=1S/C10H6ClN5O/c11-7-1-2-8-9(5-7)16(17)14-10(13-8)15-4-3-12-6-15/h1-6H,IQGKIPDJXCAMSM-UHFFFAOYSA-N,[O-][N+]1=NC(=NC2=C1C=C(Cl)C=C2)[N]3C=CN=C3,-3.63,0.1162,2.0,G3,247.645,1.1023,60.63,17.0,5.0,0.0,7.0,1.0,84.0,3.0,0.0,0.0,3.0,70.54,100.6978492,2.279149636,682.4790472
2004,A-3303,diammonium dihydrogen 2-({2-[bis(carboxylatomethyl)amino]ethyl}(carboxylatomethyl)amino)acetate,"InChI=1S/C10H16N2O8.2H3N/c13-7(14)3-11(4-8(15)16)1-2-12(5-9(17)18)6-10(19)20;;/h1-6H2,(H,13,14)(H,15,16)(H,17,18)(H,19,20);2*1H3",KYQODXQIAJFKPH-UHFFFAOYSA-N,[NH4+].[NH4+].OC(=O)CN(CCN(CC(O)=O)CC([O-])=O)CC([O-])=O,0.322699056,0.0,1.0,G1,326.306,-3.9882,70.1352,22.0,8.0,4.0,12.0,11.0,130.0,0.0,0.0,0.0,0.0,234.34,125.6379215,-1.8e-06,321.1228148
2149,A-3540,"4-(3-methyl-5-oxo-4,5-dihydro-1H-pyrazol-1-yl)benzenesulfonic acid","InChI=1S/C10H10N2O4S/c1-7-6-10(13)12(11-7)8-2-4-9(5-3-8)17(14,15)16/h2-5H,6H2,1H3,(H,14,15,16)",CWJQQASJVVAXKL-UHFFFAOYSA-N,CC1=NN(C(=O)C1)c2ccc(cc2)[S](O)(=O)=O,-1.692640297,0.0,1.0,G1,254.267,1.0459,61.4686,17.0,4.0,1.0,7.0,2.0,90.0,1.0,0.0,1.0,2.0,87.04,98.30079071,2.338886328,589.2368422
7699,C-1323,1-(pivaloyloxymethyl)allopurinol,"InChI=1S/C11H14N4O3/c1-11(2,3)10(17)18-6-15-8-7(4-14-15)9(16)13-5-12-8/h4-5H,6H2,1-3H3,(H,12,13,16)",VNPZIVNSLRXKRF-UHFFFAOYSA-N,CC(C)(C)C(=O)OC[N]1N=CC2=C1N=CNC2=O,-2.68,0.0,1.0,G1,250.258,0.6664,63.6957,18.0,6.0,1.0,7.0,2.0,96.0,2.0,0.0,0.0,2.0,89.87,102.7858392,2.212759742,635.5111232
9476,F-853,4-[4-[(2-methylpropylamino)methyl]benzoyl]thiophene-2-sulfonamide,"InChI=1S/C16H20N2O3S2/c1-11(2)8-18-9-12-3-5-13(6-4-12)16(19)14-7-15(22-10-14)23(17,20)21/h3-7,10-11,18H,8-9H2,1-2H3,(H2,17,20,21)",LMVXPRMBXRSEED-UHFFFAOYSA-N,CC(C)CNCC1=CC=C(C(=O)C2=CSC(S(N)(=O)=O)=C2)C=C1,-2.05,0.0,1.0,G1,352.481,2.3721,92.1114,23.0,5.0,2.0,7.0,7.0,124.0,2.0,0.0,0.0,2.0,89.26,140.1305642,2.067067859,777.911612
9045,F-197,N-(diethylsulfamoyl)-N-ethylethanamine,"InChI=1S/C8H20N2O2S/c1-5-9(6-2)13(11,12)10(7-3)8-4/h5-8H2,1-4H3",IYIAWAACGTUPCC-UHFFFAOYSA-N,CCN(CC)S(=O)(=O)N(CC)CC,-1.14,0.0,1.0,G1,208.327,0.9148,54.7618,13.0,2.0,0.0,5.0,6.0,80.0,0.0,0.0,0.0,0.0,40.62,81.70966657,4.706284857,200.2985258
9370,F-712,4-Fluoro-9-acridinamine,"InChI=1S/C13H9FN2/c14-10-6-3-5-9-12(15)8-4-1-2-7-11(8)16-13(9)10/h1-7H,(H2,15,16)",PUBNSRUKOMGNPM-UHFFFAOYSA-N,NC1=C2C=CC=C(F)C2=NC2=C1C=CC=C2,-1.66,0.0,1.0,G1,212.227,3.1093,63.6194,16.0,2.0,1.0,3.0,0.0,78.0,3.0,0.0,0.0,3.0,38.91,91.51980626,2.6085124,691.8927302
96,A-156,"5-isocyanato-1-(isocyanatomethyl)-1,3,3-trimethylcyclohexane","InChI=1S/C12H18N2O2/c1-11(2)4-10(14-9-16)5-12(3,6-11)7-13-8-15/h10H,4-7H2,1-3H3",NIMLQBUJDJZYEJ-UHFFFAOYSA-N,CC1(C)CC(CC(C)(CN=C=O)C1)N=C=O,-4.170824759,0.0,1.0,G1,222.288,2.243,60.637,16.0,4.0,0.0,4.0,3.0,88.0,0.0,1.0,1.0,1.0,58.86,95.8614723,2.854455781,352.0302612
5065,B-1890,disulfoton sulfone,"InChI=1S/C8H19O4PS3/c1-4-11-13(14,12-5-2)15-7-8-16(9,10)6-3/h4-8H2,1-3H3",BKVJOVPVLOJPKJ-UHFFFAOYSA-N,CCO[P](=S)(OCC)SCC[S](=O)(=O)CC,-2.5403,0.0,1.0,G1,306.411,2.4518,74.3228,16.0,6.0,0.0,8.0,9.0,98.0,0.0,0.0,0.0,0.0,52.6,107.3112872,4.184145756,318.1751244
4907,B-1713,"10h-phenothiazine, 2-chloro-7-methoxy-","InChI=1S/C13H10ClNOS/c1-16-9-3-4-10-13(7-9)17-12-5-2-8(14)6-11(12)15-10/h2-7,15H,1H3",VGCKEWCZFDSELD-UHFFFAOYSA-N,COc1ccc2Nc3cc(Cl)ccc3Sc2c1,-4.9787,0.0,1.0,G1,263.749,4.5568,71.8517,17.0,3.0,1.0,4.0,1.0,86.0,2.0,0.0,1.0,3.0,21.26,108.937392,2.041781893,585.6273
6826,B-4076,2-chlorobiphenyl,InChI=1S/C12H9Cl/c13-12-9-5-4-8-11(12)10-6-2-1-3-7-10/h1-9H,LAXBNTIAOJWAOP-UHFFFAOYSA-N,Clc1ccccc1c2ccccc2,-4.5917,0.02585,2.0,G3,188.657,4.007,56.888,13.0,0.0,0.0,1.0,1.0,64.0,2.0,0.0,0.0,2.0,0.0,82.79176355,2.536070446,392.8790478
2308,A-3847,3-acetyloxolan-2-one,"InChI=1S/C6H8O3/c1-4(7)5-2-3-9-6(5)8/h5H,2-3H2,1H3",OMQHDIHZSDEIFH-UHFFFAOYSA-N,CC(=O)C1CCOC1=O,0.397509321,0.10205466,2.0,G3,128.127,0.1385,29.747,9.0,3.0,0.0,3.0,1.0,50.0,0.0,1.0,1.0,1.0,43.37,52.99471988,2.59759685,150.3819626
7043,B-4395,"2,4,6-tribromophenol","InChI=1S/C6H3Br3O/c7-3-1-4(8)6(10)5(9)2-3/h1-2,10H",BSWWXRFVMJHFBN-UHFFFAOYSA-N,Oc1c(Br)cc(Br)cc1Br,-3.6745,0.551540765,3.0,G4,330.801,3.6797,51.2068,10.0,1.0,1.0,4.0,0.0,54.0,1.0,0.0,0.0,1.0,20.23,83.82827969,3.310532875,236.1649959
5304,B-2153,"(2,5-dioxoimidazolidin-4-yl)acetic acid","InChI=1S/C5H6N2O4/c8-3(9)1-2-4(10)7-5(11)6-2/h2H,1H2,(H,8,9)(H2,6,7,10,11)",DQQLZADYSWBCOX-UHFFFAOYSA-N,OC(=O)CC1NC(=O)NC1=O,-1.1517,0.0,1.0,G1,158.113,-1.3309,32.7152,11.0,3.0,3.0,6.0,2.0,60.0,0.0,1.0,1.0,1.0,95.5,61.57171275,2.534438673,224.5223074
3310,A-5444,(2-{[(2E)-2-cyano-2-{[4-(diethylamino)phenyl]methylidene}acetyl]oxy}ethyl)(3-{[(2E)-2-cyano-2-{[4-(diethylamino)phenyl]methylidene}acetyl]oxy}propyl)dimethylazanium chloride,"InChI=1S/C35H46N5O4.ClH/c1-7-38(8-2)32-16-12-28(13-17-32)24-30(26-36)34(41)43-22-11-20-40(5,6)21-23-44-35(42)31(27-37)25-29-14-18-33(19-15-29)39(9-3)10-4;/h12-19,24-25H,7-11,20-23H2,1-6H3;1H/q+1;/p-1/b30-24+,31-25+;",DLNMMVNCTSAPOW-LMKNCCGPSA-M,[Cl-].CCN(CC)c1ccc(cc1)/C=C(C#N)/C(=O)OCCC[N+](C)(C)CCOC(=O)\C(=C\c2ccc(cc2)N(CC)CC)C#N,-0.803618922,0.0,1.0,G1,636.237,2.45006,175.5634,45.0,8.0,0.0,10.0,17.0,242.0,2.0,0.0,0.0,2.0,106.66,274.4808197,1.01e-05,1364.732586
6996,B-4328,"carbamic acid, sulfamoyl-, butyl ester","InChI=1S/C5H12N2O4S/c1-2-3-4-11-5(8)7-12(6,9)10/h2-4H2,1H3,(H,7,8)(H2,6,9,10)",GFBKOADVXIDVBA-UHFFFAOYSA-N,CCCCOC(=O)N[S](N)(=O)=O,-1.0375,0.0,1.0,G1,196.228,-0.2838,42.4989,12.0,4.0,2.0,7.0,4.0,72.0,0.0,0.0,0.0,0.0,98.49,71.2599931,3.615836698,235.8327749
6356,B-3334,"phosphoric acid, methyl dipropyl ester","InChI=1S/C7H17O4P/c1-4-6-10-12(8,9-3)11-7-5-2/h4-7H2,1-3H3",KCJPXMHUFVFEGM-UHFFFAOYSA-N,CCCO[P](=O)(OC)OCCC,-0.6592,0.0,1.0,G1,196.183,2.5941,47.1015,12.0,4.0,0.0,5.0,7.0,74.0,0.0,0.0,0.0,0.0,44.76,73.81915008,3.789731563,136.3418022
2222,A-3675,"2-[(2H-1,3-benzodioxol-5-yl)amino]ethan-1-ol hydrochloride","InChI=1S/C9H11NO3.ClH/c11-4-3-10-7-1-2-8-9(5-7)13-6-12-8;/h1-2,5,10-11H,3-4,6H2;1H",LMONVTDNVNEAQG-UHFFFAOYSA-N,[H+].[Cl-].OCCNc1ccc2OCOc2c1,0.272897501,0.0,1.0,G1,217.652,-2.064,49.2525,14.0,4.0,2.0,5.0,3.0,78.0,1.0,0.0,1.0,2.0,50.72,89.72947633,9.8e-07,311.4089728
1396,A-2419,aluminium(3+) ion phosphate,"InChI=1S/Al.H3O4P/c;1-5(2,3)4/h;(H3,1,2,3,4)/q+3;/p-3",ILRRQNADMUWWFW-UHFFFAOYSA-K,[Al+3].[O-][P]([O-])([O-])=O,-4.246082833,0.0,1.0,G1,121.952,-3.2054,13.3605,6.0,4.0,0.0,6.0,0.0,32.0,0.0,0.0,0.0,0.0,86.25,45.18013384,0.0,53.6836744
6815,B-4063,2-nitroso-1-naphthol,"InChI=1S/C10H7NO2/c12-10-8-4-2-1-3-7(8)5-6-9(10)11-13/h1-6,12H",SYUYTOYKQOAVDW-UHFFFAOYSA-N,Oc1c(ccc2ccccc12)N=O,-2.5395,0.0,1.0,G1,173.171,2.9433,51.0678,13.0,3.0,1.0,3.0,1.0,64.0,2.0,0.0,0.0,2.0,49.66,74.60203339,2.861765456,465.4314411
1515,A-2582,icosan-1-ol,"InChI=1S/C20H42O/c1-2-3-4-5-6-7-8-9-10-11-12-13-14-15-16-17-18-19-20-21/h21H,2-20H2,1H3",BTFJIXJJCSYFAL-UHFFFAOYSA-N,CCCCCCCCCCCCCCCCCCCCO,-5.475024349,0.0,1.0,G1,298.555,7.0204,95.8658,21.0,1.0,1.0,1.0,18.0,128.0,0.0,0.0,0.0,0.0,20.23,134.467385,2.901443985,149.2213495
9510,F-890,(4-acetamidophenyl) dihydrogen phosphate,"InChI=1S/C8H10NO5P/c1-6(10)9-7-2-4-8(5-3-7)14-15(11,12)13/h2-5H,1H3,(H,9,10)(H2,11,12,13)",PSQWZQGQIUGIRU-UHFFFAOYSA-N,CC(=O)NC1=CC=C(OP(O)(=O)O)C=C1,0.13,0.0,1.0,G1,231.144,1.1165,53.4178,15.0,3.0,3.0,7.0,3.0,82.0,1.0,0.0,0.0,1.0,95.86,86.12429504,2.723882826,395.9979853
4680,B-1436,"4(1h)-pyrimidinone, 2,3-dihydro-5-methyl-2-thiox","InChI=1S/C5H6N2OS/c1-3-2-6-5(9)7-4(3)8/h2H,1H3,(H2,6,7,8,9)",ZLAQATDNGLKIEV-UHFFFAOYSA-N,CC1=CNC(=S)NC1=O,-2.4461,0.0,1.0,G1,142.183,0.74091,36.9844,9.0,2.0,2.0,4.0,0.0,48.0,1.0,0.0,0.0,1.0,48.65,56.75594354,3.523897719,311.2243005
5484,B-2354,"l-tyrosine, n-acetyl-3,5-dibromo-","InChI=1S/C11H11Br2NO4/c1-5(15)14-9(11(17)18)4-6-2-7(12)10(16)8(13)3-6/h2-3,9,16H,4H2,1H3,(H,14,15)(H,17,18)/t9-/m0/s1",FNGNLZLLBCYMOG-VIFPVBQESA-N,CC(=O)N[C@@H](Cc1cc(Br)c(O)c(Br)c1)C(O)=O,-2.183,0.0,1.0,G1,381.02,2.049,72.4513,18.0,3.0,3.0,7.0,4.0,98.0,1.0,0.0,0.0,1.0,86.63,120.4525828,2.938304516,466.9267111
2712,A-4531,cyclohexanamine,"InChI=1S/C6H13N/c7-6-4-2-1-3-5-6/h6H,1-5,7H2",PAFZNILMFXTMIY-UHFFFAOYSA-N,NC1CCCCC1,1.003589033,0.0,1.0,G1,99.177,1.2778,31.0604,7.0,1.0,1.0,1.0,0.0,42.0,0.0,1.0,1.0,1.0,26.02,44.89802114,2.12291795,46.14170945
3249,A-5354,"ethane-1,2-diylbis(oxyethane-2,1-diyl) diacetate","InChI=1S/C10H18O6/c1-9(11)15-7-5-13-3-4-14-6-8-16-10(2)12/h3-8H2,1-2H3",OVOUKWFJRHALDD-UHFFFAOYSA-N,CC(=O)OCCOCCOCCOC(C)=O,0.630324108,0.0,1.0,G1,234.248,0.1458,54.904,16.0,6.0,0.0,6.0,9.0,94.0,0.0,0.0,0.0,0.0,71.06,94.80095518,2.984708301,181.4859353
9826,G-907,Oxazepam,"InChI=1S/C15H11ClN2O2/c16-10-6-7-12-11(8-10)13(9-4-2-1-3-5-9)18-15(20)14(19)17-12/h1-8,15,20H,(H,17,19)",ADIMAYPTOBDMTL-UHFFFAOYSA-N,OC3N=C(c1ccccc1)c2cc(Cl)ccc2NC3=O ,-3.952,0.014,2.0,G3,286.718,2.4479,78.1695,20.0,3.0,2.0,5.0,1.0,100.0,2.0,0.0,1.0,3.0,61.69,120.2816993,2.231586455,698.2746308
370,A-626,cyclopentene,"InChI=1S/C5H8/c1-2-4-5-3-1/h1-2H,3-5H2",LPIQUOYDBNQMRZ-UHFFFAOYSA-N,C1CC=CC1,-2.104914482,0.2621169,2.0,G3,68.119,1.7265,22.991,5.0,0.0,0.0,0.0,0.0,28.0,0.0,0.0,1.0,1.0,0.0,32.5035853,2.323850869,38.0
39,A-56,"ethenyl 2,2-dimethyloctanoate","InChI=1S/C12H22O2/c1-5-14-11(13)9-7-6-8-10-12(2,3)4/h5H,1,6-10H2,2-4H3",TVFJAZCVMOXQRK-UHFFFAOYSA-N,CC(C)(C)CCCCCC(=O)OC=C,-4.581332511,0.0,1.0,G1,198.306,3.6697,58.829,14.0,2.0,0.0,2.0,6.0,82.0,0.0,0.0,0.0,0.0,26.3,87.33907858,3.297215111,177.2509757
3868,B-343,1-bromonaphthalene,InChI=1S/C10H7Br/c11-10-7-3-5-8-4-1-2-6-9(8)10/h1-7H,DLKQHBOKULLWDQ-UHFFFAOYSA-N,Brc1cccc2ccccc12,-4.3468,0.0,1.0,G1,207.07,3.6023,51.648,11.0,0.0,0.0,1.0,0.0,54.0,2.0,0.0,0.0,2.0,0.0,73.98061526,2.913161164,374.0344904
4688,B-1448,thiometon,"InChI=1S/C6H15O2PS3/c1-4-11-5-6-12-9(10,7-2)8-3/h4-6H2,1-3H3",OPASCBHCTNRLRM-UHFFFAOYSA-N,CCSCCS[P](=S)(OC)OC,-3.0905,0.0,1.0,G1,246.359,2.99,63.76,12.0,5.0,0.0,6.0,7.0,74.0,0.0,0.0,0.0,0.0,18.46,88.07911458,3.522394748,145.7286241
6059,B-3006,sufentanil,"InChI=1S/C22H30N2O2S/c1-3-21(25)24(19-8-5-4-6-9-19)22(18-26-2)12-15-23(16-13-22)14-11-20-10-7-17-27-20/h4-10,17H,3,11-16,18H2,1-2H3",GGCSSNBKKAUURC-UHFFFAOYSA-N,CCC(=O)N(c1ccccc1)C2(CCN(CCc3sccc3)CC2)COC,-3.7064,0.0,1.0,G1,386.561,4.2148,112.523,27.0,4.0,0.0,5.0,8.0,146.0,2.0,1.0,1.0,3.0,32.78,166.2970695,1.735187905,694.3675613
3342,A-5498,aluminium(3+) ion bis(hydrogen phosphonatooxy)phosphinate,"InChI=1S/Al.H5O10P3/c;1-11(2,3)9-13(7,8)10-12(4,5)6/h;(H,7,8)(H2,1,2,3)(H2,4,5,6)/q+3;/p-5",QPLNUHHRGZVCLQ-UHFFFAOYSA-I,[Al+3].[O-][P]([O-])(=O)O[P]([O-])(=O)O[P]([O-])([O-])=O,-5.668842338,0.570069966,3.0,G4,279.894,-4.2354,30.7435,14.0,10.0,0.0,14.0,4.0,80.0,0.0,0.0,0.0,0.0,184.97,88.09491315,0.0,277.3288005
222,A-377,ethyl 3-phenyloxirane-2-carboxylate,"InChI=1S/C11H12O3/c1-2-13-11(12)10-9(14-10)8-6-4-3-5-7-8/h3-7,9-10H,2H2,1H3",GOMAKLPNAAZVCJ-UHFFFAOYSA-N,CCOC(=O)C1OC1c2ccccc2,-2.409651238,0.0,1.0,G1,192.214,1.6896,50.689,14.0,3.0,0.0,3.0,3.0,74.0,1.0,1.0,1.0,2.0,38.83,82.6388951,1.963751398,320.5643458
9601,F-1057,tert-butyl 2-(6-methoxynaphthalen-2-yl)propanoate,"InChI=1S/C18H22O3/c1-12(17(19)21-18(2,3)4)13-6-7-15-11-16(20-5)9-8-14(15)10-13/h6-12H,1-5H3",OZUYETORLLRCHB-UHFFFAOYSA-N,COC1=CC2=C(C=C1)C=C(C(C)C(=O)OC(C)(C)C)C=C2,-6.5,0.0,1.0,G1,286.371,4.2936,84.76,21.0,3.0,0.0,3.0,3.0,112.0,2.0,0.0,0.0,2.0,35.53,125.4212171,2.278401161,653.0512927
9009,F-148,2-amino-3-[4-(2-amino-3-hydroxy-3-oxopropyl)sulfanylbutylsulfanyl]propanoic acid,"InChI=1S/C10H20N2O4S2/c11-7(9(13)14)5-17-3-1-2-4-18-6-8(12)10(15)16/h7-8H,1-6,11-12H2,(H,13,14)(H,15,16)",SSJLDPRNDPUJAU-UHFFFAOYSA-N,NC(CSCCCCSCC(N)C(=O)O)C(=O)O,-3.62,0.0,1.0,G1,296.414,0.0568,75.1064,18.0,6.0,4.0,8.0,11.0,106.0,0.0,0.0,0.0,0.0,126.64,114.8612432,3.264300201,240.2622344
9509,F-887,2-[(~{Z})-(2-hydroxynaphthalen-1-yl)methylideneamino]guanidine,"InChI=1S/C12H12N4O/c13-12(14)16-15-7-10-9-4-2-1-3-8(9)5-6-11(10)17/h1-7,17H,(H4,13,14,16)",DCIDDLVSNSCTHE-UHFFFAOYSA-N,N=C(N)NN=CC1=C2C=CC=CC2=CC=C1O,-2.46,0.0,1.0,G1,228.255,1.36237,68.2566,17.0,3.0,4.0,5.0,2.0,86.0,2.0,0.0,0.0,2.0,94.49,98.07774802,2.474478354,592.0753645
6698,B-3828,bromoethane,"InChI=1S/C2H5Br/c1-2-3/h2H2,1H3",RDHPKYGYEGBMSE-UHFFFAOYSA-N,CCBr,-1.086,0.0,1.0,G1,108.966,1.4012,19.468,3.0,0.0,0.0,1.0,0.0,20.0,0.0,0.0,0.0,0.0,0.0,28.97174075,1.632993162,2.754887502
6563,B-3557,octane,"InChI=1S/C8H18/c1-3-5-7-8-6-4-2/h3-8H2,1-2H3",TVMXDCGIABBOFY-UHFFFAOYSA-N,CCCCCCCC,-5.2382,0.0,1.0,G1,114.232,3.3668,39.05,8.0,0.0,0.0,0.0,5.0,50.0,0.0,0.0,0.0,0.0,0.0,53.29384583,2.530060457,25.01955001
8828,E-820,"2,4-Octadione","InChI=1S/C8H14O2/c1-3-4-5-8(10)6-7(2)9/h3-6H2,1-2H3",GJYXGIIWJFZCLN-UHFFFAOYSA-N,CCCCC(=O)CC(=O)C,-1.56,0.0,1.0,G1,142.198,1.7248,39.83,10.0,2.0,0.0,2.0,5.0,58.0,0.0,0.0,0.0,0.0,34.14,61.61689003,3.346959626,127.2192809
9347,F-684,4-(4-hydroxyphenyl)sulfonylfuran-2-sulfonamide,"InChI=1S/C10H9NO6S2/c11-19(15,16)10-5-9(6-17-10)18(13,14)8-3-1-7(12)2-4-8/h1-6,12H,(H2,11,15,16)",NKPDCGFEJUINIK-UHFFFAOYSA-N,NS(=O)(=O)C1=CC(S(=O)(=O)C2=CC=C(O)C=C2)=CO1,-2.4,0.0,1.0,G1,303.317,0.4654,63.6398,19.0,6.0,2.0,9.0,3.0,102.0,2.0,0.0,0.0,2.0,127.67,108.8031253,2.514489003,801.9597008
3734,B-125,o-phenanthroline,InChI=1S/C12H8N2/c1-3-9-5-6-10-4-2-8-14-12(10)11(9)13-7-1/h1-8H,DGEZNRSVGBDHLK-UHFFFAOYSA-N,c1cnc2c(c1)ccc3cccnc23,-1.826,0.289211956,3.0,G5,180.21,2.783,57.044,14.0,2.0,0.0,2.0,0.0,66.0,3.0,0.0,0.0,3.0,25.78,81.23402814,2.610318687,547.2925175
2985,A-5004,"4-bromo-2,2-diphenylbutanoic acid","InChI=1S/C16H15BrO2/c17-12-11-16(15(18)19,13-7-3-1-4-8-13)14-9-5-2-6-10-14/h1-10H,11-12H2,(H,18,19)",GFIYIIRFIODLLU-UHFFFAOYSA-N,OC(=O)C(CCBr)(c1ccccc1)c2ccccc2,-4.069491258,0.0,1.0,G1,319.198,3.8423,79.7108,19.0,1.0,1.0,3.0,5.0,98.0,2.0,0.0,0.0,2.0,37.3,120.7715692,2.646827327,497.6900958
985,A-1707,5-chloro-2-(4-chlorophenoxy)phenol,"InChI=1S/C12H8Cl2O2/c13-8-1-4-10(5-2-8)16-12-6-3-9(14)7-11(12)15/h1-7,15H",BYNQFCJOHGOKSS-UHFFFAOYSA-N,Oc1cc(Cl)ccc1Oc2ccc(Cl)cc2,-4.239393124,0.118871871,3.0,G5,255.1,4.4913,64.6428,16.0,2.0,1.0,4.0,2.0,82.0,2.0,0.0,0.0,2.0,29.46,103.0028088,2.233817118,494.871989
6393,B-3375,"1-naphthalenepropanoic acid, .beta.-amino-, (ñ)","InChI=1S/C13H13NO2/c14-12(8-13(15)16)11-7-3-5-9-4-1-2-6-10(9)11/h1-7,12H,8,14H2,(H,15,16)/t12-/m1/s1",BIOQBKBTOAMMDG-GFCCVEGCSA-N,[NH3+][C@H](CC([O-])=O)c1cccc2ccccc12,-1.5902,0.0,1.0,G1,215.252,0.2628,59.2011,16.0,2.0,1.0,3.0,3.0,82.0,2.0,0.0,0.0,2.0,67.77,93.50354054,2.473003985,516.8264504
5263,B-2103,4-methyl-1-penten-3-ol,"InChI=1S/C6H12O/c1-4-6(7)5(2)3/h4-7H,1H2,2-3H3",SZKVYEHTIWILMA-UHFFFAOYSA-N,CC(C)C(O)C=C,-0.515,0.0075,2.0,G3,100.161,1.1893,31.0418,7.0,1.0,1.0,1.0,2.0,42.0,0.0,0.0,0.0,0.0,20.23,44.66859232,3.329976598,57.20035948
6234,B-3202,"1,1'-biphenyl, 2,3,4',5-tetrachloro-",InChI=1S/C12H6Cl4/c13-8-3-1-7(2-4-8)10-5-9(14)6-11(15)12(10)16/h1-6H,CITMYAMXIZQCJD-UHFFFAOYSA-N,Clc1ccc(cc1)c2cc(Cl)cc(Cl)c2Cl,-6.77,0.0,1.0,G1,291.992,5.9672,71.918,16.0,0.0,0.0,4.0,1.0,82.0,2.0,0.0,0.0,2.0,0.0,113.7015622,2.59263094,517.2871241
4998,B-1817,"1,3-benzenedicarboxylic acid, 4-methoxy-","InChI=1S/C9H8O5/c1-14-7-3-2-5(8(10)11)4-6(7)9(12)13/h2-4H,1H3,(H,10,11)(H,12,13)",JIICYHFLIOGGHE-UHFFFAOYSA-N,COc1ccc(cc1C(O)=O)C(O)=O,-3.1165,0.0,1.0,G1,196.158,1.0916,46.9126,14.0,3.0,2.0,5.0,3.0,74.0,1.0,0.0,0.0,1.0,83.83,79.5512864,3.274414445,382.7887456
1430,A-2467,4-tert-butylcyclohexyl acetate,"InChI=1S/C12H22O2/c1-9(13)14-11-7-5-10(6-8-11)12(2,3)4/h10-11H,5-8H2,1-4H3",MBZRJSQZCBXRGK-UHFFFAOYSA-N,CC(=O)OC1CCC(CC1)C(C)(C)C,-3.699640669,0.523733416,2.0,G2,198.306,3.1544,56.967,14.0,2.0,0.0,2.0,1.0,82.0,0.0,1.0,1.0,1.0,26.3,87.02285046,2.349226936,194.8574939