,ID,Name,InChI,InChIKey,SMILES,Solubility,SD,Ocurrences,Group,MolWt,MolLogP,MolMR,HeavyAtomCount,NumHAcceptors,NumHDonors,NumHeteroatoms,NumRotatableBonds,NumValenceElectrons,NumAromaticRings,NumSaturatedRings,NumAliphaticRings,RingCount,TPSA,LabuteASA,BalabanJ,BertzCT
7618,C-1155,4-butylbenzoic acid,"InChI=1S/C11H14O2/c1-2-3-4-9-5-7-10(8-6-9)11(12)13/h5-8H,2-4H2,1H3,(H,12,13)",JFKUBRAOUZEZSL-UHFFFAOYSA-N,CCCCC1=CC=C(C=C1)C(O)=O,-3.08,0.0,1.0,G1,178.231,2.7274,52.0133,13.0,1.0,1.0,2.0,4.0,70.0,1.0,0.0,0.0,1.0,37.3,78.21186954,2.640481339,274.6466825
358,A-606,prop-2-en-1-yl 2-phenoxyacetate,"InChI=1S/C11H12O3/c1-2-8-13-11(12)9-14-10-6-4-3-5-7-10/h2-7H,1,8-9H2",VUFZVGQUAVDKMC-UHFFFAOYSA-N,C=CCOC(=O)COc1ccccc1,-2.536373209,0.0,1.0,G1,192.214,1.7946,53.093,14.0,3.0,0.0,3.0,5.0,74.0,1.0,0.0,0.0,1.0,35.53,82.95512322,2.268439797,292.6607706
412,A-705,"(2S,5R)-5-methyl-2-(propan-2-yl)cyclohexan-1-one","InChI=1S/C10H18O/c1-7(2)9-5-4-8(3)6-10(9)11/h7-9H,4-6H2,1-3H3/t8-,9+/m1/s1",NFLGAXVYCFJBMK-BDAKNGLRSA-N,CC(C)[C@@H]1CC[C@@H](C)CC1=O,-2.491877231,0.10505924,3.0,G5,154.253,2.6477,46.35,11.0,1.0,0.0,1.0,1.0,64.0,0.0,1.0,1.0,1.0,17.07,69.179421,2.507693916,148.9517669
8424,C-2498,2-chloro-4-[(4-'acetylpiperazin-1'-yl)acryloyl]phenyl   benzodioxan-6''-yl  sulfide,"InChI=1S/C23H23ClN2O4S/c1-16(27)25-8-10-26(11-9-25)23(28)7-3-17-2-6-22(19(24)14-17)31-18-4-5-20-21(15-18)30-13-12-29-20/h2-7,14-15H,8-13H2,1H3/b7-3+",PZJWSJORJOUILO-XVNBXDOJSA-N,CC(=O)N1CCN(CC1)C(=O)/C=C/C2=CC(=C(SC3=CC4=C(OCCO4)C=C3)C=C2)Cl,-2.05,0.0,1.0,G1,458.967,3.9663,120.875,31.0,5.0,0.0,8.0,4.0,162.0,2.0,1.0,2.0,4.0,59.08,190.2977735,1.371967481,1018.631218
4408,B-1111,butyl cinnamate,"InChI=1S/C13H16O2/c1-2-3-11-15-13(14)10-9-12-7-5-4-6-8-12/h4-10H,2-3,11H2,1H3/b10-9+",OHHIVLJVBNCSHV-MDZDMXLPSA-N,CCCCOC(=O)/C=C/c1ccccc1,-1.6112,0.0,1.0,G1,204.269,3.0431,61.343,15.0,2.0,0.0,2.0,5.0,80.0,1.0,0.0,0.0,1.0,26.3,90.57146222,2.344827167,314.5676548
9116,F-339,arildone,"InChI=1S/C20H29ClO4/c1-4-18(22)16(19(23)5-2)10-8-6-7-9-13-25-20-12-11-15(24-3)14-17(20)21/h11-12,14,16H,4-10,13H2,1-3H3",DIXRMZGIJNJUGL-UHFFFAOYSA-N,CCC(=O)C(CCCCCCOC1=C(Cl)C=C(OC)C=C1)C(=O)CC,-5.27,0.0,1.0,G1,368.901,5.2523,100.67,25.0,4.0,0.0,5.0,13.0,140.0,1.0,0.0,0.0,1.0,52.6,155.3939936,2.231373168,540.6271769
6511,B-3498,azoxystrobin,"InChI=1S/C22H17N3O5/c1-27-13-17(22(26)28-2)16-8-4-6-10-19(16)30-21-11-20(24-14-25-21)29-18-9-5-3-7-15(18)12-23/h3-11,13-14H,1-2H3/b17-13+",WFDXOXNFNRHQEC-GHRIWEEISA-N,CO\C=C(C(=O)OC)/c1ccccc1Oc2cc(Oc3ccccc3C#N)ncn2,-4.8276,0.0,1.0,G1,403.394,4.09318,106.781,30.0,8.0,0.0,8.0,7.0,150.0,3.0,0.0,0.0,3.0,103.56,172.4932198,1.896982693,1121.505912
615,A-1088,"3,7-dimethylocta-1,6-dien-3-yl acetate","InChI=1S/C12H20O2/c1-6-12(5,14-11(4)13)9-7-8-10(2)3/h6,8H,1,7,9H2,2-5H3",UWKAYLJWKGQEPM-UHFFFAOYSA-N,CC(C)=CCCC(C)(OC(C)=O)C=C,-3.81577692,0.0,1.0,G1,196.29,3.2406,59.033,14.0,2.0,0.0,2.0,5.0,80.0,0.0,0.0,0.0,0.0,26.3,86.64947555,4.187563022,236.7062842
3659,B-4,hydroxyphenamate,"InChI=1S/C11H15NO3/c1-2-11(14,8-15-10(12)13)9-6-4-3-5-7-9/h3-7,14H,2,8H2,1H3,(H2,12,13)",WAFIYOULDIWAKR-UHFFFAOYSA-N,CCC(O)(COC(N)=O)c1ccccc1,-0.9227,0.0,1.0,G1,209.245,1.3795,56.1652,15.0,3.0,2.0,4.0,4.0,82.0,1.0,0.0,0.0,1.0,72.55,88.66530547,2.804372575,325.8647358
7292,C-286,2-bromobenzoic acid,"InChI=1S/C7H5BrO2/c8-6-4-2-1-3-5(6)7(9)10/h1-4H,(H,9,10)",XRXMNWGCKISMOH-UHFFFAOYSA-N,OC(=O)C1=C(Br)C=CC=C1,-2.05,0.00765,2.0,G3,201.019,2.1473,41.1013,10.0,1.0,1.0,3.0,1.0,52.0,1.0,0.0,0.0,1.0,37.3,66.61964869,3.152941447,257.5379489
9250,F-571,"2-[5-[(4-hydroxyphenyl)methyl]-3-methyl-2,4-dioxoimidazolidin-1-yl]acetic acid","InChI=1S/C13H14N2O5/c1-14-12(19)10(15(13(14)20)7-11(17)18)6-8-2-4-9(16)5-3-8/h2-5,10,16H,6-7H2,1H3,(H,17,18)",UBWHIRFNXZLVKF-UHFFFAOYSA-N,CN1C(=O)C(CC2=CC=C(O)C=C2)N(CC(=O)O)C1=O,-0.05,0.0,1.0,G1,278.264,0.2819,68.1066,20.0,4.0,2.0,7.0,4.0,106.0,1.0,1.0,1.0,2.0,98.15,114.5728679,2.217998433,554.3848725
9044,F-195,N'-butanoylbutanehydrazide,"InChI=1S/C8H16N2O2/c1-3-5-7(11)9-10-8(12)6-4-2/h3-6H2,1-2H3,(H,9,11)(H,10,12)",YSGWZHXCNJWCBN-UHFFFAOYSA-N,CCCC(=O)NNC(=O)CCC,-1.0,0.0,1.0,G1,172.228,0.734,46.1014,12.0,2.0,2.0,4.0,4.0,70.0,0.0,0.0,0.0,0.0,58.2,72.68675042,3.402570683,139.1368501
6622,B-3664,"2,4,6-trichloronitrobenzene",InChI=1S/C6H2Cl3NO2/c7-3-1-4(8)6(10(11)12)5(9)2-3/h1-2H,AEBJDOTVYMITIA-UHFFFAOYSA-N,[O-][N+](=O)c1c(Cl)cc(Cl)cc1Cl,-4.5591,0.0,1.0,G1,226.446,3.555,48.1264,12.0,2.0,0.0,6.0,1.0,64.0,1.0,0.0,0.0,1.0,43.14,82.99417752,3.379814336,316.5602371
4275,B-954,3-aminopyridine,"InChI=1S/C5H6N2/c6-5-2-1-3-7-4-5/h1-4H,6H2",CUYKNJBYIJFRCU-UHFFFAOYSA-N,Nc1cccnc1,1.0263,0.0,1.0,G1,94.117,0.6638,28.6494,7.0,2.0,1.0,2.0,0.0,36.0,1.0,0.0,0.0,1.0,38.91,41.9909418,3.02146531,136.0075042
5906,B-2834,perfluidone,"InChI=1S/C14H12F3NO4S2/c1-10-9-12(23(19,20)11-5-3-2-4-6-11)7-8-13(10)18-24(21,22)14(15,16)17/h2-9,18H,1H3",WHTBVLXUSXVMEV-UHFFFAOYSA-N,Cc1cc(ccc1N[S](=O)(=O)C(F)(F)F)[S](=O)(=O)c2ccccc2,-3.8009,0.0,1.0,G1,379.381,3.08932,81.6703,24.0,4.0,1.0,10.0,4.0,130.0,2.0,0.0,0.0,2.0,80.31,136.6510242,2.41589629,953.2592297
4103,B-731,dioctyl adipate,"InChI=1S/C22H42O4/c1-3-5-7-9-11-15-19-25-21(23)17-13-14-18-22(24)26-20-16-12-10-8-6-4-2/h3-20H2,1-2H3",NEHDRDVHPTWWFG-UHFFFAOYSA-N,CCCCCCCCOC(=O)CCCCC(=O)OCCCCCCCC,-5.6768,0.0,1.0,G1,370.574,6.3542,107.138,26.0,4.0,0.0,4.0,19.0,154.0,0.0,0.0,0.0,0.0,52.6,160.9531701,3.307768947,296.1039371
4184,B-835,"1,3-dioxolane-4,4-diacetic acid, 5-oxo-","InChI=1S/C7H8O7/c8-4(9)1-7(2-5(10)11)6(12)13-3-14-7/h1-3H2,(H,8,9)(H,10,11)",PXPMCAKTYKAROX-UHFFFAOYSA-N,OC(=O)CC1(CC(O)=O)OCOC1=O,-0.611,0.0095,2.0,G3,204.134,-0.7945,39.2806,14.0,5.0,2.0,7.0,4.0,78.0,0.0,1.0,1.0,1.0,110.13,78.22319682,2.830889212,265.7628977
6877,B-4154,azobenzene,InChI=1S/C12H10N2/c1-3-7-11(8-4-1)13-14-12-9-5-2-6-10-12/h1-10H,DMLAVOWQYNRWNQ-UHFFFAOYSA-N,c1ccc(cc1)N=Nc2ccccc2,-4.4544,0.2572,2.0,G3,182.226,4.102,57.06,14.0,2.0,0.0,2.0,2.0,68.0,2.0,0.0,0.0,2.0,24.72,82.93527517,2.159341418,365.3515672
6028,B-2972,"24nh2pyrimidine,5(35-meo-4-oetome)benzyl","InChI=1S/C16H22N4O4/c1-21-4-5-24-14-12(22-2)7-10(8-13(14)23-3)6-11-9-19-16(18)20-15(11)17/h7-9H,4-6H2,1-3H3,(H4,17,18,19,20)",WSWJIZXMAUYHOE-UHFFFAOYSA-N,COCCOc1c(OC)cc(Cc2cnc(N)nc2N)cc1OC,-2.101,0.0,1.0,G1,334.376,1.2742,90.5798,24.0,8.0,2.0,8.0,8.0,130.0,2.0,0.0,0.0,2.0,114.74,140.2514083,2.30368109,668.767895
833,A-1448,2-butyloctanoic acid,"InChI=1S/C12H24O2/c1-3-5-7-8-10-11(12(13)14)9-6-4-2/h11H,3-10H2,1-2H3,(H,13,14)",OARDBPIZDHVTCK-UHFFFAOYSA-N,CCCCCCC(CCCC)C(O)=O,-4.959305967,0.0,1.0,G1,200.322,3.8478,59.4098,14.0,1.0,1.0,2.0,9.0,84.0,0.0,0.0,0.0,0.0,37.3,87.70937014,3.569818821,143.2571555
7998,C-1866,7-methyl-3h-pteridin-4-one,"InChI=1S/C7H6N4O/c1-4-2-8-5-6(11-4)9-3-10-7(5)12/h2-3H,1H3,(H,9,10,11,12)",ZFKCYEYVBSXGLU-UHFFFAOYSA-N,CC1=NC2=C(N=C1)C(=O)NC=N2,-1.56,0.0,1.0,G1,162.152,0.02152,42.6907,12.0,4.0,1.0,5.0,0.0,60.0,2.0,0.0,0.0,2.0,71.53,67.51812379,2.959080536,476.0352248
7772,C-1450,"2,2',4,4',5,6'-hexachlorodiphenyl  ether",InChI=1S/C12H4Cl6O/c13-5-1-9(17)12(10(18)2-5)19-11-4-7(15)6(14)3-8(11)16/h1-4H,XKQUAQGQLZDDBV-UHFFFAOYSA-N,ClC1=CC(=C(OC2=C(Cl)C=C(Cl)C(=C2)Cl)C(=C1)Cl)Cl,-8.04,0.0,1.0,G1,376.881,7.3993,83.018,19.0,1.0,0.0,7.0,2.0,100.0,2.0,0.0,0.0,2.0,9.23,139.4216399,2.446754884,617.3521142
6288,B-3263,"3-pyridinecarboxamide, n-nonyl-","InChI=1S/C15H24N2O/c1-2-3-4-5-6-7-8-12-17-15(18)14-10-9-11-16-13-14/h9-11,13H,2-8,12H2,1H3,(H,17,18)",GPBKHZUWQWRROQ-UHFFFAOYSA-N,CCCCCCCCCNC(=O)c1cccnc1,-3.1398,0.0,1.0,G1,248.37,3.562,74.5632,18.0,2.0,1.0,3.0,9.0,100.0,1.0,0.0,0.0,1.0,41.99,110.0118565,1.99579575,324.5253032
1220,A-2104,(2R)-heptan-2-yl 2-[(5-chloroquinolin-8-yl)oxy]acetate (2S)-heptan-2-yl 2-[(5-chloroquinolin-8-yl)oxy]acetate,"InChI=1S/C18H22ClNO3/c1-3-4-5-7-13(2)23-17(21)12-22-16-10-9-15(19)14-8-6-11-20-18(14)16/h6,8-11,13H,3-5,7,12H2,1-2H3",COYBRKAVBMYYSF-UHFFFAOYSA-N,CCCCCC(C)OC(=O)COc1ccc(Cl)c2cccnc12,-5.747969532,0.085987163,4.0,G5,335.831,4.779,91.944,23.0,4.0,0.0,5.0,8.0,124.0,2.0,0.0,0.0,2.0,48.42,141.3090734,1.908833852,659.7567985
8306,C-2316,"2,2',3,4,4',6-hexachlorodiphenyl  ether",InChI=1S/C12H4Cl6O/c13-5-1-2-9(6(14)3-5)19-12-8(16)4-7(15)10(17)11(12)18/h1-4H,BIWCEXHDIQZFHI-UHFFFAOYSA-N,ClC1=CC(=C(OC2=C(Cl)C(=C(Cl)C=C2Cl)Cl)C=C1)Cl,-8.47,0.0,1.0,G1,376.881,7.3993,83.018,19.0,1.0,0.0,7.0,2.0,100.0,2.0,0.0,0.0,2.0,9.23,139.4216399,2.465268188,640.6021142
5027,B-1849,flurenol-butyl,"InChI=1S/C18H18O3/c1-2-3-12-21-17(19)18(20)15-10-6-4-8-13(15)14-9-5-7-11-16(14)18/h4-11,20H,2-3,12H2,1H3",PSGPXWYGJGGEEG-UHFFFAOYSA-N,CCCCOC(=O)C1(O)c2ccccc2c3ccccc13,-3.8885,0.0,1.0,G1,282.339,3.2462,80.7438,21.0,3.0,1.0,3.0,4.0,108.0,2.0,0.0,1.0,3.0,46.53,123.7416199,2.067770105,630.1685859
3964,B-499,3-heptanone,"InChI=1S/C7H14O/c1-3-5-6-7(8)4-2/h3-6H2,1-2H3",NGAZZOYFWWSOGK-UHFFFAOYSA-N,CCCCC(=O)CC,-1.4242,0.2611,2.0,G3,114.188,2.1557,34.823,8.0,1.0,0.0,1.0,4.0,48.0,0.0,0.0,0.0,0.0,17.07,51.09042581,2.988598648,66.78707744
914,A-1570,"5-amino-6-methyl-2,3-dihydro-1H-1,3-benzodiazol-2-one","InChI=1S/C8H9N3O/c1-4-2-6-7(3-5(4)9)11-8(12)10-6/h2-3H,9H2,1H3,(H2,10,11,12)",ZCXIPVIGYBHUTQ-UHFFFAOYSA-N,Cc1cc2NC(=O)Nc2cc1N,-1.977138482,0.127916623,2.0,G3,163.18,0.74682,48.0688,12.0,2.0,3.0,4.0,0.0,62.0,2.0,0.0,0.0,2.0,74.67,68.40823096,2.915474886,438.4988968
6297,B-3273,isoxaben,"InChI=1S/C18H24N2O4/c1-6-18(3,7-2)14-11-15(24-20-14)19-17(21)16-12(22-4)9-8-10-13(16)23-5/h8-11H,6-7H2,1-5H3,(H,19,21)",PMHURSZHKKJGBM-UHFFFAOYSA-N,CCC(C)(CC)c1cc(NC(=O)c2c(OC)cccc2OC)on1,-5.3694,0.0753,2.0,G3,332.4,4.0218,91.9362,24.0,5.0,1.0,6.0,7.0,130.0,2.0,0.0,0.0,2.0,73.59,141.6767846,2.2714881,682.5443653
5972,B-2906,"2,4(1h,3h)-pteridinedione, 1,6,7-trimethyl-","InChI=1S/C9H10N4O2/c1-4-5(2)11-7-6(10-4)8(14)12-9(15)13(7)3/h1-3H3,(H,12,14,15)",XCOSZAUDQCILGD-UHFFFAOYSA-N,CN1C(=O)NC(=O)c2nc(C)c(C)nc12,-2.1129,0.0,1.0,G1,206.205,-0.36636,54.8737,15.0,5.0,1.0,6.0,0.0,78.0,2.0,0.0,0.0,2.0,80.64,84.6195016,3.108205142,653.4355357
1327,A-2299,"8,8-dimethyl-7-propan-2-yl-6,10-dioxaspiro[4.5]decane","InChI=1S/C13H24O2/c1-10(2)11-12(3,4)9-14-13(15-11)7-5-6-8-13/h10-11H,5-9H2,1-4H3",NKDJGNROVOPIGT-UHFFFAOYSA-N,CC(C)C1OC2(CCCC2)OCC1(C)C,-3.524243771,0.0,1.0,G1,212.333,3.3543,60.643,15.0,2.0,0.0,2.0,1.0,88.0,0.0,2.0,2.0,2.0,18.46,93.33398455,2.12088371,226.6904521
6560,B-3550,"2,3-dimethylbutane","InChI=1S/C6H14/c1-5(2)6(3)4/h5-6H,1-4H3",ZFFMLCVRJBZUDZ-UHFFFAOYSA-N,CC(C)C(C)C,-3.5832,0.0334,2.0,G3,86.178,2.2984,29.676,6.0,0.0,0.0,0.0,1.0,38.0,0.0,0.0,0.0,0.0,0.0,40.5639616,2.993497243,21.01955001
4270,B-949,"benzoic acid, 4-fluoro-3-nitro-","InChI=1S/C7H4FNO4/c8-5-2-1-4(7(10)11)3-6(5)9(12)13/h1-3H,(H,10,11)",BOJWTAQWPVBIPG-UHFFFAOYSA-N,OC(=O)c1ccc(F)c(c1)[N+]([O-])=O,-1.5809,0.0,1.0,G1,185.11,1.4321,40.0137,13.0,3.0,1.0,6.0,2.0,68.0,1.0,0.0,0.0,1.0,80.44,71.57061221,3.267052212,376.7553336
7403,C-662,ethofumesate,"InChI=1S/C13H18O5S/c1-5-16-12-13(2,3)10-8-9(18-19(4,14)15)6-7-11(10)17-12/h6-8,12H,5H2,1-4H3",IRCMYGHHKLLGHV-UHFFFAOYSA-N,CCOC1OC2=CC=C(O[S](C)(=O)=O)C=C2C1(C)C,-3.42,0.16895,2.0,G3,286.349,2.0576,70.9818,19.0,5.0,0.0,6.0,4.0,106.0,1.0,0.0,1.0,2.0,61.83,113.1552047,2.351348551,576.6964147
6584,B-3592,1-methylfluorene,"InChI=1S/C14H12/c1-10-5-4-8-13-12-7-3-2-6-11(12)9-14(10)13/h2-8H,9H2,1H3",GKEUODMJRFDLJY-UHFFFAOYSA-N,Cc1cccc2c1Cc3ccccc23,-5.2184,0.0,1.0,G1,180.25,3.56622,59.421,14.0,0.0,0.0,0.0,0.0,68.0,2.0,0.0,1.0,3.0,0.0,84.2125504,2.325073944,495.141539
7759,C-1431,"naproxen (n,n-diethylcarbamoyl)methyl ester","InChI=1S/C20H25NO4/c1-5-21(6-2)19(22)13-25-20(23)14(3)15-7-8-17-12-18(24-4)10-9-16(17)11-15/h7-12,14H,5-6,13H2,1-4H3",WABNCOPYWOQKLV-UHFFFAOYSA-N,CCN(CC)C(=O)COC(=O)C(C)C1=CC2=CC=C(OC)C=C2C=C1,-4.46,0.0,1.0,G1,343.423,3.3635,97.802,25.0,4.0,0.0,5.0,7.0,134.0,2.0,0.0,0.0,2.0,55.84,148.0724571,2.059282281,752.4446058
5655,B-2547,isoxathion,"InChI=1S/C13H16NO4PS/c1-3-15-19(20,16-4-2)18-13-10-12(17-14-13)11-8-6-5-7-9-11/h5-10H,3-4H2,1-2H3",SDMSCIWHRZJSRN-UHFFFAOYSA-N,CCO[P](=S)(OCC)Oc1cc(on1)c2ccccc2,-5.2172,0.0,1.0,G1,313.315,4.0179,80.104,20.0,6.0,0.0,7.0,7.0,108.0,2.0,0.0,0.0,2.0,53.72,122.6341631,2.145092887,577.0669089
1197,A-2062,barium 3-hydroxy-4-[(4-methyl-2-sulphonatophenyl)azo]-2-naphthoate,"InChI=1S/C18H14N2O6S.Ba/c1-10-6-7-14(15(8-10)27(24,25)26)19-20-16-12-5-3-2-4-11(12)9-13(17(16)21)18(22)23;/h2-9,19H,1H3,(H,22,23)(H,24,25,26);/q;+2/p-2/b20-16-;",LPMJODPDQRKJEH-LRZQPWDCSA-L,[Ba++].Cc1ccc(N\N=C\2C(=O)C(=Cc3ccccc23)C([O-])=O)c(c1)[S]([O-])(=O)=O,-5.735147106,0.679510971,2.0,G2,521.697,0.05052,99.4889,28.0,8.0,1.0,10.0,4.0,138.0,2.0,0.0,1.0,3.0,138.79,200.720091,2.8e-06,1138.514875
102,A-170,"(1Z,5Z)-cycloocta-1,5-diene","InChI=1S/C8H12/c1-2-4-6-8-7-5-3-1/h1-2,7-8H,3-6H2/b2-1-,8-7-",VYXHVRARDIDEHS-QGTKBVGQSA-N,C\1C\C=C/CC\C=C1,-2.965977173,0.0,1.0,G1,108.184,2.6728,36.748,8.0,0.0,0.0,0.0,0.0,44.0,0.0,0.0,1.0,1.0,0.0,50.90880861,2.285714286,72.60593782
3266,A-5375,sodium bis(2-methylpropyl) sulfanidyl(sulfanylidene)phosphonite,"InChI=1S/C8H19O2PS2.Na/c1-7(2)5-9-11(12,13)10-6-8(3)4;/h7-8H,5-6H2,1-4H3,(H,12,13);/q;+1/p-1",FOYPFIDVYRCZKA-UHFFFAOYSA-M,[Na+].CC(C)CO[P]([S-])(=S)OCC(C)C,0.57785683,0.0,1.0,G1,264.328,0.107,63.23,14.0,4.0,0.0,6.0,6.0,80.0,0.0,0.0,0.0,0.0,18.46,120.131245,0.0,172.1800927
7047,B-4402,o-hydroxybenzyl alcohol,"InChI=1S/C7H8O2/c8-5-6-3-1-2-4-7(6)9/h1-4,8-9H,5H2",CQRYARSYNCAZFO-UHFFFAOYSA-N,OCc1ccccc1O,-0.2946,0.0,1.0,G1,124.139,0.8845,34.0296,9.0,2.0,2.0,2.0,1.0,48.0,1.0,0.0,0.0,1.0,40.46,53.38481274,3.006524007,195.8625685
1660,A-2756,3-[ethyl[4-[(4-nitrophenyl)azo]phenyl]amino]propiononitrile,"InChI=1S/C17H17N5O2/c1-2-21(13-3-12-18)16-8-4-14(5-9-16)19-20-15-6-10-17(11-7-15)22(23)24/h4-11H,2-3,13H2,1H3",ZSPPPAFDNHYXNW-UHFFFAOYSA-N,CCN(CCC#N)c1ccc(cc1)N=Nc2ccc(cc2)[N+]([O-])=O,-7.208650928,0.0,1.0,G1,323.356,4.75018,91.8314,24.0,6.0,0.0,7.0,7.0,122.0,2.0,0.0,0.0,2.0,94.89,139.5653748,2.048173162,748.0455239
8612,D-1648,cytisine,"InChI=1S/C11H14N2O/c14-11-3-1-2-10-9-4-8(5-12-6-9)7-13(10)11/h1-3,8-9,12H,4-7H2/t8-,9-/m0/s1",ANJTVLIZGCUXLD-IUCAKERBSA-N,O=C1C=CC=C2[C@@H]3CNC[C@H](C3)CN12,0.363,0.0,1.0,G1,190.246,0.555,54.4197,14.0,3.0,1.0,3.0,0.0,74.0,1.0,1.0,2.0,3.0,34.03,82.75039725,2.146934161,409.9937129
7059,B-4426,"1,3,6,8-tetrachlorodibenzo-p-dioxin",InChI=1S/C12H4Cl4O2/c13-5-1-7(15)11-9(3-5)18-12-8(16)2-6(14)4-10(12)17-11/h1-4H,OTQFXRBLGNEOGH-UHFFFAOYSA-N,Clc1cc(Cl)c2Oc3cc(Cl)cc(Cl)c3Oc2c1,-9.0027,0.0,1.0,G1,321.974,6.1982,73.072,18.0,2.0,0.0,6.0,0.0,92.0,2.0,0.0,1.0,3.0,18.46,122.9228215,2.175373301,597.5110496
7022,B-4360,"1-phenylpropane-1,2-dione","InChI=1S/C9H8O2/c1-7(10)9(11)8-5-3-2-4-6-8/h2-6H,1H3",BVQVLAIMHVDZEL-UHFFFAOYSA-N,CC(=O)C(=O)c1ccccc1,-1.7558,0.0,1.0,G1,148.161,1.4583,41.4535,11.0,2.0,0.0,2.0,2.0,56.0,1.0,0.0,0.0,1.0,34.14,64.84927366,2.947980343,274.8740242
6287,B-3262,"3-pyridinecarboxamide, n-octyl-","InChI=1S/C14H22N2O/c1-2-3-4-5-6-7-11-16-14(17)13-9-8-10-15-12-13/h8-10,12H,2-7,11H2,1H3,(H,16,17)",JSIDBRSPTZXMGO-UHFFFAOYSA-N,CCCCCCCCNC(=O)c1cccnc1,-3.0081,0.0,1.0,G1,234.343,3.1719,69.9462,17.0,2.0,1.0,3.0,8.0,94.0,1.0,0.0,0.0,1.0,41.99,103.6469144,2.05090829,311.2580653
556,A-995,"1,3-diethyl 2-butylpropanedioate","InChI=1S/C11H20O4/c1-4-7-8-9(10(12)14-5-2)11(13)15-6-3/h9H,4-8H2,1-3H3",RPNFNBGRHCUORR-UHFFFAOYSA-N,CCCCC(C(=O)OCC)C(=O)OCC,-2.816496397,0.0,1.0,G1,216.277,1.919,56.281,15.0,4.0,0.0,4.0,7.0,88.0,0.0,0.0,0.0,0.0,52.6,90.93880683,4.278065309,182.7646023
2072,A-3416,imidazolidin-2-one,"InChI=1S/C3H6N2O/c6-3-4-1-2-5-3/h1-2H2,(H2,4,5,6)",YAMHXTCMCPHKLN-UHFFFAOYSA-N,O=C1NCCN1,0.840273374,0.109458674,3.0,G5,86.094,-0.7008,21.4014,6.0,1.0,2.0,3.0,0.0,34.0,0.0,1.0,1.0,1.0,41.13,35.72455057,2.367351851,63.1934494
4814,B-1602,"dl-methionine, n-acetyl-","InChI=1S/C7H13NO3S/c1-5(9)8-6(7(10)11)3-4-12-2/h6H,3-4H2,1-2H3,(H,8,9)(H,10,11)/p-1/t6-/m1/s1",XUYPXLNMDZIRQH-ZCFIWIBFSA-M,CSCC[C@@H](NC(C)=O)C([O-])=O,-0.3216,0.0,1.0,G1,190.244,-1.0059,45.6107,12.0,4.0,1.0,5.0,5.0,70.0,0.0,0.0,0.0,0.0,69.23,75.71915388,3.865424553,172.0344236
5043,B-1866,n-oxidenicotinic acid,"InChI=1S/C6H5NO3/c8-6(9)5-2-1-3-7(10)4-5/h1-4H,(H,8,9)",FJCFFCXMEXZEIM-UHFFFAOYSA-N,OC(=O)C1=C[NH++]([O-])[CH-]C=C1,-1.2983,0.0,1.0,G1,140.118,-0.93081,33.4885,10.0,2.0,1.0,4.0,1.0,53.0,0.0,0.0,1.0,1.0,67.76,57.64278616,2.758959978,207.0384684
8825,E-809,m-Aminoacetophenone,"InChI=1S/C8H9NO/c1-6(10)7-3-2-4-8(9)5-7/h2-5H,9H2,1H3",CKQHAYFOPRIUOM-UHFFFAOYSA-N,c1ccc(N)cc1C(=O)C,-1.28,0.191571678,2.0,G3,135.166,1.4714,40.8589,10.0,2.0,1.0,2.0,1.0,52.0,1.0,0.0,0.0,1.0,43.09,59.66270015,3.069899266,255.1894334
3081,A-5139,N-(butoxymethyl)prop-2-enamide,"InChI=1S/C8H15NO2/c1-3-5-6-11-7-9-8(10)4-2/h4H,2-3,5-7H2,1H3,(H,9,10)",UTSYWKJYFPPRAP-UHFFFAOYSA-N,CCCCOCNC(=O)C=C,-0.653663028,0.0,1.0,G1,157.213,1.0628,44.0667,11.0,2.0,1.0,3.0,6.0,64.0,0.0,0.0,0.0,0.0,38.33,67.42917231,3.012858539,123.2604657
5785,B-2696,diisooctyl phthalate,"InChI=1S/C24H38O4/c1-19(2)13-7-5-11-17-27-23(25)21-15-9-10-16-22(21)24(26)28-18-12-6-8-14-20(3)4/h9-10,15-16,19-20H,5-8,11-14,17-18H2,1-4H3",IJFPVINAQGWBRJ-UHFFFAOYSA-N,CC(C)CCCCCOC(=O)c1ccccc1C(=O)OCCCCCC(C)C,-6.6375,0.0,1.0,G1,390.564,6.433,113.619,28.0,4.0,0.0,4.0,14.0,158.0,1.0,0.0,0.0,1.0,52.6,170.5504958,2.38887953,526.7228098
89,A-144,tungsten(4+) ion disulfanediide,InChI=1S/2S.W,ITRNXVSDJBHYNJ-UHFFFAOYSA-N,S=[W]=S,-4.139133643,0.0,1.0,G1,247.974,1.2939,15.182,3.0,2.0,0.0,3.0,0.0,18.0,0.0,0.0,0.0,0.0,0.0,34.65223128,3.265986324,23.77443751
65,A-106,"ethyl 3,5,5-trimethylhexanoate","InChI=1S/C11H22O2/c1-6-13-10(12)7-9(2)8-11(3,4)5/h9H,6-8H2,1-5H3",NMZMQQBBZRGLPJ-UHFFFAOYSA-N,CCOC(=O)CC(C)CC(C)(C)C,-3.823043168,0.025392856,3.0,G5,186.295,3.0119,54.486,13.0,2.0,0.0,2.0,4.0,78.0,0.0,0.0,0.0,0.0,26.3,81.6637395,3.74027542,155.963439
1292,A-2245,methyl myristate,"InChI=1S/C15H30O2/c1-3-4-5-6-7-8-9-10-11-12-13-14-15(16)17-2/h3-14H2,1-2H3",ZAZKJZBWRNNLDS-UHFFFAOYSA-N,CCCCCCCCCCCCCC(=O)OC,-6.649738161,0.0,1.0,G1,242.403,4.8605,73.094,17.0,2.0,0.0,2.0,12.0,102.0,0.0,0.0,0.0,0.0,26.3,107.123508,2.961268147,166.3047549
6881,B-4165,diisopropyl methylphosphonate,"InChI=1S/C7H17O3P/c1-6(2)9-11(5,8)10-7(3)4/h6-7H,1-5H3",WOAFDHWYKSOANX-UHFFFAOYSA-N,CC(C)O[P](C)(=O)OC(C)C,-0.0516,0.0,1.0,G1,180.184,2.6593,45.9725,11.0,3.0,0.0,4.0,4.0,68.0,0.0,0.0,0.0,0.0,35.53,68.61893459,3.907836095,139.7646759
3007,A-5035,4-[(4-amino-3-chlorophenyl)methyl]-2-chloroaniline,"InChI=1S/C13H12Cl2N2/c14-10-6-8(1-3-12(10)16)5-9-2-4-13(17)11(15)7-9/h1-4,6-7H,5,16-17H2",IBOFVQJTBBUKMU-UHFFFAOYSA-N,Nc1ccc(Cc2ccc(N)c(Cl)c2)cc1Cl,-4.286890723,0.0,1.0,G1,267.159,3.7486,74.5348,17.0,2.0,2.0,4.0,2.0,88.0,2.0,0.0,0.0,2.0,52.04,110.1397533,2.249182293,503.6108804
8663,D-1964,4-nonanol,"InChI=1S/C9H20O/c1-3-5-6-8-9(10)7-4-2/h9-10H,3-8H2,1-2H3",IXUOEGRSQCCEHB-UHFFFAOYSA-N,CCCCCC(O)CCC,-2.591,0.0,1.0,G1,144.258,2.7277,45.0568,10.0,1.0,1.0,1.0,6.0,62.0,0.0,0.0,0.0,0.0,20.23,64.4530217,2.968015041,61.74860596
2918,A-4894,2-hydroxy-4-methylbenzamide,"InChI=1S/C8H9NO2/c1-5-2-3-6(8(9)11)7(10)4-5/h2-4,10H,1H3,(H2,9,11)",OLEJYVBTZPUQDX-UHFFFAOYSA-N,Cc1ccc(C(N)=O)c(O)c1,-2.917000159,0.0,1.0,G1,151.165,0.79952,41.3617,11.0,2.0,2.0,3.0,1.0,58.0,1.0,0.0,0.0,1.0,63.32,64.4569339,3.196069662,294.1435742
5423,B-2285,4-chlorophenyl phenyl ether,InChI=1S/C12H9ClO/c13-10-6-8-12(9-7-10)14-11-4-2-1-3-5-11/h1-9H,PGPNJCAMHOJTEF-UHFFFAOYSA-N,Clc1ccc(Oc2ccccc2)cc1,-4.7925,0.0,1.0,G1,204.656,4.1323,57.968,14.0,1.0,0.0,2.0,2.0,70.0,2.0,0.0,0.0,2.0,9.23,87.90530878,2.155110851,394.4267229
494,A-875,dipraseodymium(3+) ion tricarbonate,"InChI=1S/3CH2O3.2Pr/c3*2-1(3)4;;/h3*(H2,2,3,4);;/q;;;2*+3/p-6",XIRHLBQGEYXJKG-UHFFFAOYSA-H,[Pr+3].[Pr+3].[O-]C([O-])=O.[O-]C([O-])=O.[O-]C([O-])=O,-5.022027024,0.257679861,2.0,G3,461.84,-7.341,16.188,14.0,9.0,0.0,11.0,0.0,72.0,0.0,0.0,0.0,0.0,189.57,143.6407252,-2.7e-08,115.6067314
3820,B-272,musk ketone,"InChI=1S/C14H18N2O5/c1-7-10(9(3)17)8(2)13(16(20)21)11(14(4,5)6)12(7)15(18)19/h1-6H3",WXCMHFPAUCOJIG-UHFFFAOYSA-N,CC(=O)c1c(C)c(c(c(c1C)[N+]([O-])=O)C(C)(C)C)[N+]([O-])=O,-5.1901,0.0,1.0,G1,294.307,3.61994,77.9293,21.0,5.0,0.0,7.0,3.0,114.0,1.0,0.0,0.0,1.0,103.35,121.8184136,4.166135675,615.3038176