,ID,Name,InChI,InChIKey,SMILES,Solubility,SD,Ocurrences,Group,MolWt,MolLogP,MolMR,HeavyAtomCount,NumHAcceptors,NumHDonors,NumHeteroatoms,NumRotatableBonds,NumValenceElectrons,NumAromaticRings,NumSaturatedRings,NumAliphaticRings,RingCount,TPSA,LabuteASA,BalabanJ,BertzCT
5291,B-2138,"3-pyridinecarboxylic acid, decyl ester","InChI=1S/C16H25NO2/c1-2-3-4-5-6-7-8-9-13-19-16(18)15-11-10-12-17-14-15/h10-12,14H,2-9,13H2,1H3",OVSJCKDIBDNMMK-UHFFFAOYSA-N,CCCCCCCCCCOC(=O)c1cccnc1,-3.1901,0.0,1.0,G1,263.381,4.3791,77.1295,19.0,3.0,0.0,3.0,10.0,106.0,1.0,0.0,0.0,1.0,39.19,115.9404817,1.949353626,337.8619867
644,A-1126,2-ethylhexyl 2-methylprop-2-enoate,"InChI=1S/C12H22O2/c1-5-7-8-11(6-2)9-14-12(13)10(3)4/h11H,3,5-9H2,1-2,4H3",WDQMWEYDKDCEHT-UHFFFAOYSA-N,CCCCC(CC)COC(=O)C(C)=C,-4.805974161,0.282135457,3.0,G5,198.306,3.3221,59.079,14.0,2.0,0.0,2.0,7.0,82.0,0.0,0.0,0.0,0.0,26.3,87.33907858,3.714658842,184.7607507
7818,C-1548,methylglyoxime,"InChI=1S/C3H6N2O2/c1-3(5-7)2-4-6/h2,6-7H,1H3/b4-2+,5-3+",KFTHGQZJWAXFGG-ZUVMSYQZSA-N,CC(\C=N\O)=N/O,-0.35,0.0,1.0,G1,102.093,0.2965,25.174,7.0,4.0,2.0,4.0,1.0,40.0,0.0,0.0,0.0,0.0,65.18,40.75632473,3.582450056,97.10802962
6066,B-3013,"1,1'-biphenyl, 2,3',4,5',6-pentachloro-",InChI=1S/C12H5Cl5/c13-7-1-6(2-8(14)3-7)12-10(16)4-9(15)5-11(12)17/h1-5H,XBVSGJGMWSKAKL-UHFFFAOYSA-N,Clc1cc(Cl)c(c(Cl)c1)c2cc(Cl)cc(Cl)c2,-7.92,0.0,1.0,G1,326.437,6.6206,76.928,17.0,0.0,0.0,5.0,1.0,88.0,2.0,0.0,0.0,2.0,0.0,124.0048285,2.67802605,533.8489384
7470,C-824,buparvaquone,"InChI=1S/C21H26O3/c1-21(2,3)14-10-8-13(9-11-14)12-17-18(22)15-6-4-5-7-16(15)19(23)20(17)24/h4-7,13-14,24H,8-12H2,1-3H3",KLLIVCPQDTYMLC-UHFFFAOYSA-N,CC(C)(C)C1CCC(CC1)CC2=C(O)C(=O)C3=C(C=CC=C3)C2=O,-7.04,0.0,1.0,G1,326.436,5.1203,94.2778,24.0,3.0,1.0,3.0,2.0,128.0,1.0,1.0,2.0,3.0,54.37,143.3215474,1.755312268,698.0391966
5088,B-1914,"3,5-pyridinedicarboxylic acid, 2,6-dimethyl-","InChI=1S/C9H9NO4/c1-4-6(8(11)12)3-7(9(13)14)5(2)10-4/h3H,1-2H3,(H,11,12)(H,13,14)",WQFXJSOUBPGBGW-UHFFFAOYSA-N,Cc1nc(C)c(cc1C(O)=O)C(O)=O,-2.809,0.0,1.0,G1,195.174,1.09484,47.6296,14.0,3.0,2.0,5.0,2.0,74.0,1.0,0.0,0.0,1.0,87.49,80.02233126,3.417888615,376.2681357
1230,A-2129,2-[4-(2-{4-[2-(prop-2-enoyloxy)ethoxy]phenyl}propan-2-yl)phenoxy]ethyl prop-2-enoate,"InChI=1S/C25H28O6/c1-5-23(26)30-17-15-28-21-11-7-19(8-12-21)25(3,4)20-9-13-22(14-10-20)29-16-18-31-24(27)6-2/h5-14H,1-2,15-18H2,3-4H3",XWUNIDGEMNBBAQ-UHFFFAOYSA-N,CC(C)(c1ccc(OCCOC(=O)C=C)cc1)c2ccc(OCCOC(=O)C=C)cc2,-5.999481603,0.0,1.0,G1,424.493,4.2285,118.314,31.0,6.0,0.0,6.0,12.0,164.0,2.0,0.0,0.0,2.0,71.06,182.6307639,1.897749061,807.7331652
9419,F-778,"N,N-Dimethyl-4-nitrobenzamide","InChI=1S/C9H10N2O3/c1-10(2)9(12)7-3-5-8(6-4-7)11(13)14/h3-6H,1-2H3",WYOXDERVKORKJN-UHFFFAOYSA-N,CN(C)C(=O)C1=CC=C(C=C1)[N+](=O)[O-],-1.27,0.0,1.0,G1,194.19,1.2966,51.1139,14.0,3.0,0.0,5.0,2.0,74.0,1.0,0.0,0.0,1.0,63.45,81.10056096,2.939953719,356.8247456
2861,A-4786,2-({2-[bis(carboxymethyl)amino]ethyl}(carboxymethyl)amino)acetic acid,"InChI=1S/C10H16N2O8/c13-7(14)3-11(4-8(15)16)1-2-12(5-9(17)18)6-10(19)20/h1-6H2,(H,13,14)(H,15,16)(H,17,18)(H,19,20)",KCXVZYZYPLLWCC-UHFFFAOYSA-N,OC(=O)CN(CCN(CC(O)=O)CC(O)=O)CC(O)=O,-2.766775599,0.185416977,4.0,G5,292.244,-2.0712,63.4232,20.0,6.0,4.0,10.0,11.0,114.0,0.0,0.0,0.0,0.0,155.68,113.3664208,4.494378507,315.4538811
6298,B-3274,"1-butanol, 3-ethoxy-","InChI=1S/C6H14O2/c1-3-8-6(2)4-5-7/h6-7H,3-5H2,1-2H3",UTVOVDXBOIGHTP-UHFFFAOYSA-N,CCOC(C)CCO,-0.3736,0.0,1.0,G1,118.176,0.7938,32.7908,8.0,2.0,1.0,2.0,4.0,50.0,0.0,0.0,0.0,0.0,29.46,50.47174058,2.919612641,39.7931939
2569,A-4303,1-methoxypropan-2-yl acetate,"InChI=1S/C6H12O3/c1-5(4-8-3)9-6(2)7/h5H,4H2,1-3H3",LLHKCFNBLRBOGN-UHFFFAOYSA-N,COCC(C)OC(C)=O,0.083023239,0.123935385,3.0,G5,132.159,0.5844,33.104,9.0,3.0,0.0,3.0,3.0,54.0,0.0,0.0,0.0,0.0,35.53,54.95257416,3.259231489,90.30376252
5181,B-2013,"butanedioic acid, methyl-, (r)-","InChI=1S/C5H8O4/c1-3(5(8)9)2-4(6)7/h3H,2H2,1H3,(H,6,7)(H,8,9)/t3-/m1/s1",WXUAQHNMJWJLTG-GSVOUGTGSA-N,C[C@H](CC(O)=O)C(O)=O,0.6311,0.0,1.0,G1,132.115,0.1818,29.0526,9.0,2.0,2.0,4.0,3.0,52.0,0.0,0.0,0.0,0.0,74.6,52.11053119,3.632432152,128.9196845
4549,B-1278,dimethyl selenide,InChI=1S/C2H6Se/c1-3-2/h1-2H3,RVIXKDRPFPUUOO-UHFFFAOYSA-N,C[Se]C,-0.6502,0.0,1.0,G1,109.03,0.7868,17.482,3.0,0.0,0.0,1.0,0.0,20.0,0.0,0.0,0.0,0.0,0.0,27.38475422,1.632993162,2.754887502
8275,C-2275,"2-sulfamoyl-5-(n,n-dimethylsulfamoylamido)-1,3,4-thiadiazole","InChI=1S/C4H9N5O4S3/c1-9(2)16(12,13)8-3-6-7-4(14-3)15(5,10)11/h1-2H3,(H,6,8)(H2,5,10,11)",OXCKOUMFAKPIEL-UHFFFAOYSA-N,CN(C)[S](=O)(=O)NC1=NN=C(S1)[S](N)(=O)=O,-2.68,0.0,1.0,G1,287.348,-1.5962,57.5117,16.0,7.0,2.0,12.0,4.0,92.0,1.0,0.0,0.0,1.0,135.35,96.515916,2.984751788,572.5698831
6116,B-3070,tifatol,"InChI=1S/C12H14N2S/c1-9-4-5-11(10(2)8-9)13-12-14(3)6-7-15-12/h4-8H,1-3H3",YUAUPYJCVKNAEC-UHFFFAOYSA-N,CN1C=CSC1=Nc2ccc(C)cc2C,-3.163,0.0,1.0,G1,218.325,2.93584,64.429,15.0,3.0,0.0,3.0,1.0,78.0,2.0,0.0,0.0,2.0,17.29,93.54862889,2.531618516,534.5503022
4934,B-1742,perchloropropylene,"InChI=1S/C3Cl6/c4-1(2(5)6)3(7,8)9",VFDYKPARTDCDCU-UHFFFAOYSA-N,ClC(Cl)=C(Cl)C(Cl)(Cl)Cl,-4.1651,0.0,1.0,G1,248.751,4.2421,44.875,9.0,0.0,0.0,6.0,0.0,54.0,0.0,0.0,0.0,0.0,0.0,82.59912959,4.39951587,125.7286241
4791,B-1578,4-methyl-n-oxidepyridine,"InChI=1S/C6H7NO/c1-6-2-4-7(8)5-3-6/h2-5H,1H3",IWYYIZOHWPCALJ-UHFFFAOYSA-N,Cc1cc[n+]([O-])cc1,0.9621,0.0,1.0,G1,109.128,0.62842,30.139,8.0,1.0,0.0,2.0,0.0,42.0,1.0,0.0,0.0,1.0,26.94,47.97423695,3.032455532,147.3883389
1567,A-2643,"1,6-bis(7-methyloctyl) hexanedioate","InChI=1S/C24H46O4/c1-21(2)15-9-5-7-13-19-27-23(25)17-11-12-18-24(26)28-20-14-8-6-10-16-22(3)4/h21-22H,5-20H2,1-4H3",AYWLCKHHUFBVGJ-UHFFFAOYSA-N,CC(C)CCCCCCOC(=O)CCCCC(=O)OCCCCCCC(C)C,-6.600567801,0.5,2.0,G3,398.628,6.8462,116.232,28.0,4.0,0.0,4.0,19.0,166.0,0.0,0.0,0.0,0.0,52.6,173.6830543,3.343835774,340.8014379
8967,F-70,"1-Methyl-9H-pyrido[3,4-b]indole","InChI=1S/C12H10N2/c1-8-12-10(6-7-13-8)9-4-2-3-5-11(9)14-12/h2-7,14H,1H3",PSFDQSOCUJVVGF-UHFFFAOYSA-N,CC1=NC=CC2=C1NC1=C2C=CC=C1,-3.79,0.0,1.0,G1,182.226,3.02452,58.3367,14.0,1.0,1.0,2.0,0.0,68.0,3.0,0.0,0.0,3.0,28.68,81.5884827,2.632728847,607.8208026
8609,D-1625,"1,2-difluorobenzene",InChI=1S/C6H4F2/c7-5-3-1-2-4-6(5)8/h1-4H,GOYDNIKZWGIXJT-UHFFFAOYSA-N,Fc1ccccc1F,-2.0,0.4998,2.0,G3,114.094,1.9648,26.358,8.0,0.0,0.0,2.0,0.0,42.0,1.0,0.0,0.0,1.0,0.0,45.76247393,3.134861511,162.6383389
6760,B-3977,2-methylthiobenzothiazole,"InChI=1S/C8H7NS2/c1-10-8-9-6-4-2-3-5-7(6)11-8/h2-5H,1H3",UTBVIMLZIRIFFR-UHFFFAOYSA-N,CSc1sc2ccccc2n1,-3.1614,0.0,1.0,G1,181.285,3.0182,51.401,11.0,3.0,0.0,3.0,1.0,56.0,2.0,0.0,0.0,2.0,12.89,73.46113104,2.686518365,333.8844937
6714,B-3861,1-chloroheptane,"InChI=1S/C7H15Cl/c1-2-3-4-5-6-7-8/h2-7H2,1H3",DZMDPHNGKBEVRE-UHFFFAOYSA-N,CCCCCCCCl,-3.9957,0.0,1.0,G1,134.65,3.1956,39.479,8.0,0.0,0.0,1.0,5.0,50.0,0.0,0.0,0.0,0.0,0.0,57.23216994,2.530060457,29.36806555
5189,B-2021,5-methylchrysene,"InChI=1S/C19H14/c1-13-12-15-7-3-4-8-16(15)18-11-10-14-6-2-5-9-17(14)19(13)18/h2-12H,1H3",GOHBXWHNJHENRX-UHFFFAOYSA-N,Cc1cc2ccccc2c3ccc4ccccc4c13,-6.592,0.0,1.0,G1,242.321,5.45462,83.697,19.0,0.0,0.0,0.0,0.0,90.0,4.0,0.0,0.0,4.0,0.0,111.8413388,2.354744751,916.7400111
9897,H-419,Propyzamide  ,"InChI=1S/C3H7NO/c1-2-3(4)5/h2H2,1H3,(H2,4,5)",QLNJFJADRCOGBJ-UHFFFAOYSA-N,CCC(N)=O,-4.23,0.0,1.0,G1,73.095,-0.1183,19.4854,5.0,1.0,1.0,2.0,1.0,30.0,0.0,0.0,0.0,0.0,43.09,30.97054805,2.847378923,42.15772188
5342,B-2193,"ethanol, 2-mercapto-, 1-acetate","InChI=1S/C4H8O2S/c1-4(5)6-2-3-7/h7H,2-3H2,1H3",YDLAHBBJAGGIJZ-UHFFFAOYSA-N,CC(=O)OCCS,-1.5,0.0,1.0,G1,120.173,0.4793,30.486,7.0,3.0,1.0,3.0,2.0,42.0,0.0,0.0,0.0,0.0,26.3,48.26421136,2.821938937,62.71013448
1540,A-2613,dicalcium (phosphonatooxy)phosphonate,"InChI=1S/2Ca.H4O7P2/c;;1-8(2,3)7-9(4,5)6/h;;(H2,1,2,3)(H2,4,5,6)/q2*+2;/p-4",JUNWLZAGQLJVLR-UHFFFAOYSA-J,[Ca++].[Ca++].[O-][P]([O-])(=O)O[P]([O-])([O-])=O,-5.998459357,0.0,1.0,G1,254.097,-4.1012,27.806,11.0,7.0,0.0,11.0,2.0,56.0,0.0,0.0,0.0,0.0,135.61,121.9955465,-3.2e-07,154.8795951
4269,B-948,"3-furanol, tetrahydro-","InChI=1S/C4H8O2/c5-4-1-2-6-3-4/h4-5H,1-3H2",XDPCNPCKDGQBAN-UHFFFAOYSA-N,OC1CCOC1,1.055,0.0,1.0,G1,88.106,-0.2324,21.4428,6.0,2.0,1.0,2.0,0.0,36.0,0.0,1.0,1.0,1.0,29.46,36.7360252,2.18410557,38.81274391
2478,A-4146,"2,2'-(1,3-phenylene)dipropan-2-ol","InChI=1S/C12H18O2/c1-11(2,13)9-6-5-7-10(8-9)12(3,4)14/h5-8,13-14H,1-4H3",UGPWRRVOLLMHSC-UHFFFAOYSA-N,CC(C)(O)c1cccc(c1)C(C)(C)O,-1.863533046,0.033240029,2.0,G3,194.274,2.1414,56.9316,14.0,2.0,2.0,2.0,2.0,78.0,1.0,0.0,0.0,1.0,40.46,85.20952331,3.148163892,286.5789935
1854,A-3034,2-[4-(2-sulfoethyl)piperazin-1-yl]ethane-1-sulfonic acid,"InChI=1S/C8H18N2O6S2.Na/c11-17(12,13)7-5-9-1-2-10(4-3-9)6-8-18(14,15)16;/h1-8H2,(H,11,12,13)(H,14,15,16);/q;+1/p-1",OGGAIRCLBMGXCZ-UHFFFAOYSA-M,[Na+].O[S](=O)(=O)CCN1CCN(CC1)CC[S]([O-])(=O)=O,-2.747593942,0.0,1.0,G1,324.356,-4.959,63.8598,19.0,7.0,1.0,11.0,6.0,108.0,0.0,1.0,1.0,1.0,118.05,135.4783537,3.24e-06,413.6308302
8534,D-306,permethrin,"InChI=1S/C21H20Cl2O3/c1-21(2)17(12-18(22)23)19(21)20(24)25-13-14-7-6-10-16(11-14)26-15-8-4-3-5-9-15/h3-12,17,19H,13H2,1-2H3/t17-,19-/m0/s1",RLLPVAHGXHCWKJ-HKUYNNGSSA-N,CC1(C)[C@@H](C=C(Cl)Cl)[C@H]1C(=O)OCc2cccc(Oc3ccccc3)c2,-6.99,0.4122,2.0,G3,391.294,6.1133,103.304,26.0,3.0,0.0,5.0,6.0,136.0,2.0,1.0,1.0,3.0,35.53,163.0726872,1.592183546,811.0157196
6923,B-4226,solan,"InChI=1S/C13H18ClNO/c1-4-5-10(3)13(16)15-11-7-6-9(2)12(14)8-11/h6-8,10H,4-5H2,1-3H3,(H,15,16)",WGVWLKXZBUVUAM-UHFFFAOYSA-N,CCCC(C)C(=O)Nc1ccc(C)c(Cl)c1,-4.4503,0.0,1.0,G1,239.746,4.02312,68.8907,16.0,1.0,1.0,3.0,4.0,88.0,1.0,0.0,0.0,1.0,29.1,102.0006484,2.658540869,376.1953854
4713,B-1479,2-pteridinamine,"InChI=1S/C6H5N5/c7-6-10-3-4-5(11-6)9-2-1-8-4/h1-3H,(H2,7,9,10,11)",HYCZDWGCJOEHBO-UHFFFAOYSA-N,Nc1ncc2nccnc2n1,-2.2979,0.0,1.0,G1,147.141,0.002,39.5404,11.0,5.0,1.0,5.0,0.0,54.0,2.0,0.0,0.0,2.0,77.58,62.33155027,2.828901216,385.3843559
8941,F-12,"5-Phenylcyclohexane-1,3-dione","InChI=1S/C12H12O2/c13-11-6-10(7-12(14)8-11)9-4-2-1-3-5-9/h1-5,10H,6-8H2",UPPYKNLSSLIIAZ-UHFFFAOYSA-N,O=C1CC(=O)CC(C2=CC=CC=C2)C1,-2.51,0.0,1.0,G1,188.226,2.0923,53.048,14.0,2.0,0.0,2.0,1.0,72.0,1.0,1.0,1.0,2.0,34.14,82.93826885,2.189282689,337.8442956
2228,A-3690,1-[2-(2-butoxy-1-methylethoxy)-1-methylethoxy]propan-1-ol,"InChI=1S/C13H28O4/c1-4-15-7-5-6-13(3)17-9-8-16-11-12(2)10-14/h12-14H,4-11H2,1-3H3",QVIFIIFBFORLSL-UHFFFAOYSA-N,CCOCCCC(C)OCCOCC(C)CO,-0.790860844,0.0,1.0,G1,248.363,1.8532,68.2098,17.0,4.0,1.0,4.0,12.0,104.0,0.0,0.0,0.0,0.0,47.92,105.2534258,3.18373699,152.3548886
7010,B-4346,paraquat dichloride,"InChI=1S/C12H14N2.2ClH/c1-13-7-3-11(4-8-13)12-5-9-14(2)10-6-12;;/h3-10H,1-2H3;2*1H/q+2;;/p-2",FIKAKWIAUPDISJ-UHFFFAOYSA-L,[Cl-].[Cl-].C[n+]1ccc(cc1)c2cc[n+](C)cc2,0.4349,0.0,1.0,G1,257.164,-4.9894,54.23,16.0,0.0,0.0,4.0,1.0,86.0,2.0,0.0,0.0,2.0,7.76,108.383807,1.12e-06,380.2766778
2094,A-3459,2-{[4-(oxiran-2-ylmethoxy)butoxy]methyl}oxirane,"InChI=1S/C10H18O4/c1(3-11-5-9-7-13-9)2-4-12-6-10-8-14-10/h9-10H,1-8H2",SHKUUQIDMUMQQK-UHFFFAOYSA-N,C(CCOCC1CO1)COCC2CO2,-0.560813739,0.0,1.0,G1,202.25,0.5974,50.352,14.0,4.0,0.0,4.0,9.0,82.0,0.0,2.0,2.0,2.0,43.52,84.46624867,1.253734647,136.200988
2290,A-3811,sodium hydrogen-5-sulphoisophthalate,"InChI=1S/C8H6O7S.Na/c9-7(10)4-1-5(8(11)12)3-6(2-4)16(13,14)15;/h1-3H,(H,9,10)(H,11,12)(H,13,14,15);/q;+1/p-1",YXTFRJVQOWZDPP-UHFFFAOYSA-M,[Na+].OC(=O)c1cc(cc(c1)[S]([O-])(=O)=O)C(O)=O,0.109395948,0.0,1.0,G1,268.178,-3.0089,48.3238,17.0,5.0,2.0,9.0,3.0,86.0,1.0,0.0,0.0,1.0,131.8,118.1148347,2.56e-06,530.9864683
2238,A-3708,octan-1-amine dibutyl sulfanylphosphonate,"InChI=1S/C8H19N.C8H19O3PS/c1-2-3-4-5-6-7-8-9;1-3-5-7-10-12(9,13)11-8-6-4-2/h2-9H2,1H3;3-8H2,1-2H3,(H,9,13)",IVMOXNPAUDFORG-UHFFFAOYSA-N,CCCCCCCCN.CCCCO[P](S)(=O)OCCCC,-1.879697302,0.007731713,2.0,G3,355.525,5.9633,100.7429,22.0,4.0,2.0,6.0,14.0,136.0,0.0,0.0,0.0,0.0,61.55,143.1527868,0.0,235.5454176
4004,B-563,4-methylpyridine,"InChI=1S/C6H7N/c1-6-2-4-7-5-3-6/h2-5H,1H3",FKNQCJSGGFJEIZ-UHFFFAOYSA-N,Cc1ccncc1,1.0309,0.0,1.0,G1,93.129,1.39002,28.974,7.0,1.0,0.0,1.0,0.0,36.0,1.0,0.0,0.0,1.0,12.89,43.01599321,3.02146531,134.1073697
7221,C-86,"spiro-5,5-dimethylenebarbituric  acid","InChI=1S/C6H6N2O3/c9-3-6(1-2-6)4(10)8-5(11)7-3/h1-2H2,(H2,7,8,9,10,11)",PQVZDTWRGIHYCU-UHFFFAOYSA-N,O=C1NC(=O)C2(CC2)C(=O)N1,-1.89,0.0,1.0,G1,154.125,-0.8674,33.3484,11.0,3.0,2.0,5.0,0.0,58.0,0.0,2.0,2.0,2.0,75.27,62.13658996,2.295160792,245.0009609
1999,A-3296,diethyl sulfate,"InChI=1S/C4H10O4S/c1-3-7-9(5,6)8-4-2/h3-4H2,1-2H3",DENRZWYUOJLTMF-UHFFFAOYSA-N,CCO[S](=O)(=O)OCC,-1.342949719,0.0,1.0,G1,154.187,0.3042,32.1718,9.0,4.0,0.0,5.0,4.0,56.0,0.0,0.0,0.0,0.0,52.6,55.10457396,3.73456282,135.9505705
1425,A-2462,chromium tris((2-ethylhexanoate),"InChI=1S/3C8H16O2.Cr/c3*1-3-5-6-7(4-2)8(9)10;/h3*7H,3-6H2,1-2H3,(H,9,10);/q;;;+3/p-3",WBKDDMYJLXVBNI-UHFFFAOYSA-K,[Cr+3].CCCCC(CC)C([O-])=O.CCCCC(CC)C([O-])=O.CCCCC(CC)C([O-])=O,-3.019941271,0.0,1.0,G1,481.614,2.8556,114.939,31.0,6.0,0.0,7.0,15.0,183.0,0.0,0.0,0.0,0.0,120.39,200.8853625,-1.74e-07,366.4790461
3417,A-5663,"1-ethyl-6-hydroxy-4-methyl-5-[(E)-2-(2-nitrophenyl)diazen-1-yl]-2-oxo-1,2-dihydropyridine-3-carbonitrile","InChI=1S/C15H13N5O4/c1-3-19-14(21)10(8-16)9(2)13(15(19)22)18-17-11-6-4-5-7-12(11)20(23)24/h4-7,17H,3H2,1-2H3/b18-13-",FTMJABNEYSXUEV-AQTBWJFISA-N,CCN1C(=O)C(=N/Nc2ccccc2[N+]([O-])=O)\C(=C(C#N)C1=O)C,-6.815976001,0.0,1.0,G1,327.3,1.59148,84.8611,24.0,7.0,1.0,9.0,4.0,122.0,1.0,0.0,1.0,2.0,128.7,136.5642019,2.471034746,834.5113205
5830,B-2749,lyral,"InChI=1S/C13H22O2/c1-13(2,15)9-3-4-11-5-7-12(10-14)8-6-11/h5,10,12,15H,3-4,6-9H2,1-2H3",ORMHZBNNECIKOH-UHFFFAOYSA-N,CC(C)(O)CCCC1=CCC(CC1)C=O,-1.5376,0.0,1.0,G1,210.317,2.853,61.6368,15.0,2.0,1.0,2.0,5.0,86.0,0.0,0.0,1.0,1.0,37.3,92.37887807,2.231519598,235.4107329
1998,A-3294,1-[(2-hydroxypropyl)(4-methylphenyl)amino]propan-2-ol,"InChI=1S/C13H21NO2/c1-10-4-6-13(7-5-10)14(8-11(2)15)9-12(3)16/h4-7,11-12,15-16H,8-9H2,1-3H3",JFZVSHAMRZPOPA-UHFFFAOYSA-N,CC(O)CN(CC(C)O)c1ccc(C)cc1,-1.5038218,0.0,1.0,G1,223.316,1.56302,66.7536,16.0,3.0,2.0,3.0,5.0,90.0,1.0,0.0,0.0,1.0,43.7,97.33429909,2.781112715,296.2135621
233,A-390,"(3E)-penta-1,3-diene; (3Z)-penta-1,3-diene; cyclopentene","InChI=1S/3C5H8/c1-2-4-5-3-1;2*1-3-5-4-2/h1-2H,3-5H2;2*3-5H,1H2,2H3/b;5-4+;5-4-",UEGXXVLLCWTKGN-GIHNHNQOSA-N,C\C=C/C=C.C/C=C/C=C.C1CC=CC1,-2.454265074,0.277547224,2.0,G3,204.357,5.2235,73.013,15.0,0.0,0.0,0.0,2.0,84.0,0.0,0.0,1.0,1.0,0.0,95.40625662,0.0,182.0782
5546,B-2424,"propanoic acid, 3-propoxy-, propyl ester","InChI=1S/C9H18O3/c1-3-6-11-8-5-9(10)12-7-4-2/h3-8H2,1-2H3",YTUFRRBSSNRYID-UHFFFAOYSA-N,CCCOCCC(=O)OCCC,-1.6848,0.0,1.0,G1,174.24,1.7563,46.977,12.0,3.0,0.0,3.0,7.0,72.0,0.0,0.0,0.0,0.0,35.53,74.0474005,3.083720794,112.3412753
178,A-305,4-(1-methoxy-1-methylethyl)-1-methylcyclohexene,"InChI=1S/C11H20O/c1-9-5-7-10(8-6-9)11(2,3)12-4/h5,10H,6-8H2,1-4H3",YWJHQHJWHJRTAB-UHFFFAOYSA-N,COC(C)(C)C1CCC(=CC1)C,-3.296613578,0.0,1.0,G1,168.28,3.1578,52.186,12.0,1.0,0.0,1.0,2.0,70.0,0.0,0.0,1.0,1.0,9.23,75.80678322,2.561778865,179.443134
6324,B-3301,haloxyfop-etotyl,"InChI=1S/C19H19ClF3NO5/c1-3-26-8-9-27-18(25)12(2)28-14-4-6-15(7-5-14)29-17-16(20)10-13(11-24-17)19(21,22)23/h4-7,10-12H,3,8-9H2,1-2H3",MIJLZGZLQLAQCM-UHFFFAOYSA-N,CCOCCOC(=O)C(C)Oc1ccc(Oc2ncc(cc2Cl)C(F)(F)F)cc1,-5.8739,0.0,1.0,G1,433.81,4.8931,98.307,29.0,6.0,0.0,10.0,9.0,158.0,2.0,0.0,0.0,2.0,66.88,170.0432577,1.923384213,814.4821747
6087,B-3038,"2,4,4'-trichlorodiphenyl ether",InChI=1S/C12H7Cl3O/c13-8-1-4-10(5-2-8)16-12-6-3-9(14)7-11(12)15/h1-7H,PIORTDHJOLELKR-UHFFFAOYSA-N,Clc1ccc(Oc2ccc(Cl)cc2Cl)cc1,-6.2196,0.0,1.0,G1,273.546,5.4391,67.988,16.0,1.0,0.0,4.0,2.0,82.0,2.0,0.0,0.0,2.0,9.23,108.5118412,2.233817118,494.1171015
5942,B-2871,"tris(1,3-dichloropropyl) phosphate","InChI=1S/C9H15Cl6O4P/c10-4-1-7(13)17-20(16,18-8(14)2-5-11)19-9(15)3-6-12/h7-9H,1-6H2",DHNUXDYAOVSGII-UHFFFAOYSA-N,ClCCC(Cl)O[P](=O)(OC(Cl)CCCl)OC(Cl)CCCl,-3.6344,0.0,1.0,G1,430.907,5.7257,85.7955,20.0,4.0,0.0,11.0,12.0,122.0,0.0,0.0,0.0,0.0,44.76,148.3686317,4.688089103,254.81735
8308,C-2318,n-benzoyl-o-acetyl-l-tyrosinamide,"InChI=1S/C18H18N2O4/c1-12(21)24-15-9-7-13(8-10-15)11-16(17(19)22)20-18(23)14-5-3-2-4-6-14/h2-10,16H,11H2,1H3,(H2,19,22)(H,20,23)",QJGVNUOLWAHMIO-UHFFFAOYSA-N,CC(=O)OC1=CC=C(CC(NC(=O)C2=CC=CC=C2)C(N)=O)C=C1,-3.89,0.0,1.0,G1,326.352,1.4383,88.3456,24.0,4.0,2.0,6.0,6.0,124.0,2.0,0.0,0.0,2.0,98.49,139.1660144,2.043428387,726.4437971
7359,C-547,dibenzofuran,InChI=1S/C12H8O/c1-3-7-11-9(5-1)10-6-2-4-8-12(10)13-11/h1-8H,TXCDCPKCNAJMEE-UHFFFAOYSA-N,O1C2=C(C=CC=C2)C3=C1C=CC=C3,-4.6,0.120379262,3.0,G5,168.195,3.586,53.72,13.0,1.0,0.0,1.0,0.0,62.0,3.0,0.0,0.0,3.0,13.14,75.58906145,2.64243826,512.8841359
0,A-3,"N,N,N-trimethyloctadecan-1-aminium bromide","InChI=1S/C21H46N.BrH/c1-5-6-7-8-9-10-11-12-13-14-15-16-17-18-19-20-21-22(2,3)4;/h5-21H2,1-4H3;1H/q+1;/p-1",SZEMGTQCPRNXEG-UHFFFAOYSA-M,[Br-].CCCCCCCCCCCCCCCCCC[N+](C)(C)C,-3.616127121,0.0,1.0,G1,392.51,3.9581,102.4454,23.0,0.0,0.0,2.0,17.0,142.0,0.0,0.0,0.0,0.0,0.0,158.5206006,0.0,210.3773341
2663,A-4472,2-(4-methyl-5-oxo-4-propan-2-yl-1H-imidazol-2-yl)pyridine-3-carboxylic acid,"InChI=1S/C13H15N3O3/c1-7(2)13(3)12(19)15-10(16-13)9-8(11(17)18)5-4-6-14-9/h4-7H,1-3H3,(H,17,18)(H,15,16,19)",CLQMBPJKHLGMQK-UHFFFAOYSA-N,CC(C)C1(C)N=C(NC1=O)c2ncccc2C(O)=O,-1.364029386,0.0,1.0,G1,261.281,1.0709,69.119,19.0,4.0,2.0,6.0,3.0,100.0,1.0,0.0,1.0,2.0,91.65,110.1272195,2.506540118,580.2511034
9316,F-649,hexyl 3-chloro-4-hydroxybenzoate,"InChI=1S/C13H17ClO3/c1-2-3-4-5-8-17-13(16)10-6-7-12(15)11(14)9-10/h6-7,9,15H,2-5,8H2,1H3",XYGOUWSAVDEPBE-UHFFFAOYSA-N,CCCCCCOC(=O)C1=CC(Cl)=C(O)C=C1,-4.09,0.0,1.0,G1,256.729,3.7827,67.5413,17.0,3.0,1.0,4.0,6.0,94.0,1.0,0.0,0.0,1.0,46.53,106.3585652,2.38911061,376.9273662
3867,B-338,chlorothymol,"InChI=1S/C10H13ClO/c1-6(2)8-5-9(11)7(3)4-10(8)12/h4-6,12H,1-3H3",KFZXVMNBUMVKLN-UHFFFAOYSA-N,CC(C)c1cc(Cl)c(C)cc1O,-2.2664,0.0,1.0,G1,184.666,3.47742,51.9428,12.0,1.0,1.0,2.0,1.0,66.0,1.0,0.0,0.0,1.0,20.23,77.98867156,3.231552504,292.135208
8588,D-1451,"1,3-dichloro-2-propanol","InChI=1S/C3H6Cl2O/c4-1-3(6)2-5/h3,6H,1-2H2",DEWLEGDTCGBNGU-UHFFFAOYSA-N,OC(CCl)CCl,-0.115,0.0,1.0,G1,128.986,0.8249,27.4468,6.0,1.0,1.0,3.0,2.0,38.0,0.0,0.0,0.0,0.0,20.23,46.86990146,2.754184786,27.97416845
5968,B-2902,"propanamide, 2-oxo-n-phenyl-","InChI=1S/C9H9NO2/c1-7(11)9(12)10-8-5-3-2-4-6-8/h2-6H,1H3,(H,10,12)",VOKLUGVCKPXDJE-UHFFFAOYSA-N,CC(=O)C(=O)Nc1ccccc1,-1.3676,0.0,1.0,G1,163.176,1.2141,45.7527,12.0,2.0,1.0,3.0,2.0,62.0,1.0,0.0,0.0,1.0,46.17,70.39913585,2.650397773,292.656662
8134,C-2077,6-(hexanoyloxymethylthio)purine,"InChI=1S/C12H16N4O2S/c1-2-3-4-5-9(17)18-8-19-12-10-11(14-6-13-10)15-7-16-12/h6-7H,2-5,8H2,1H3,(H,13,14,15,16)",AKLIYCJZHPSMMA-UHFFFAOYSA-N,CCCCCC(=O)OCSC1=NC=NC2=C1N=C[NH]2,-3.63,0.0,1.0,G1,280.353,2.526,72.6417,19.0,6.0,1.0,7.0,7.0,102.0,2.0,0.0,0.0,2.0,80.76,114.9339442,1.792667775,543.2638343
7625,C-1179,fenobucarb,"InChI=1S/C12H17NO2/c1-4-9(2)10-7-5-6-8-11(10)15-12(14)13-3/h5-9H,4H2,1-3H3,(H,13,14)",DIRFUJHNVNOBMY-UHFFFAOYSA-N,CCC(C)C1=C(OC(=O)NC)C=CC=C1,-2.53,0.0165,2.0,G3,207.273,2.9183,60.2317,15.0,2.0,1.0,3.0,3.0,82.0,1.0,0.0,0.0,1.0,38.33,90.44598532,2.905749558,336.1489336
1876,A-3080,potassium fluoride,InChI=1S/FH.K/h1H;/q;+1/p-1,NROKBHXJSPEDAR-UHFFFAOYSA-M,[F-].[K+],1.228407286,0.0,1.0,G1,58.096,-5.992,0.0,2.0,0.0,0.0,2.0,0.0,8.0,0.0,0.0,0.0,0.0,0.0,55.01970542,0.0,2.0
4044,B-637,diethylene glycol monoethyl ether,"InChI=1S/C6H14O3/c1-2-8-5-6-9-4-3-7/h7H,2-6H2,1H3",XXJWXESWEXIICW-UHFFFAOYSA-N,CCOCCOCCO,0.8723,0.0,1.0,G1,134.175,0.0318,34.3978,9.0,3.0,1.0,3.0,6.0,56.0,0.0,0.0,0.0,0.0,38.69,55.58528581,2.595082707,41.56763142
5599,B-2487,"2-thiazolecarboxylic acid, hydrazide","InChI=1S/C4H5N3OS/c5-7-3(8)4-6-1-2-9-4/h1-2H,5H2,(H,7,8)",OPJYIWMGTSMLKB-UHFFFAOYSA-N,NNC(=O)c1sccn1,-0.6787,0.0,1.0,G1,143.171,-0.2534,33.7676,9.0,4.0,2.0,5.0,1.0,48.0,1.0,0.0,0.0,1.0,68.01,55.67776749,2.770351771,195.5874816