,ID,Name,InChI,InChIKey,SMILES,Solubility,SD,Ocurrences,Group,MolWt,MolLogP,MolMR,HeavyAtomCount,NumHAcceptors,NumHDonors,NumHeteroatoms,NumRotatableBonds,NumValenceElectrons,NumAromaticRings,NumSaturatedRings,NumAliphaticRings,RingCount,TPSA,LabuteASA,BalabanJ,BertzCT
5645,B-2536,"2-cyclopenta[c]pyran-4-carboxylic acid, 1-(-d-g","InChI=1S/C17H26O10/c1-6-9(19)3-7-8(15(23)24-2)5-25-16(11(6)7)27-17-14(22)13(21)12(20)10(4-18)26-17/h5-7,9-14,16-22H,3-4H2,1-2H3/t6-,7+,9-,10+,11+,12+,13-,14+,16-,17-/m0/s1",AMBQHHVBBHTQBF-UOUCRYGSSA-N,COC(=O)C1=CO[C@@H](O[C@@H]2O[C@H](CO)[C@@H](O)[C@H](O)[C@H]2O)[C@@H]3[C@@H](C)[C@@H](O)C[C@H]13,-0.5911,0.0,1.0,G1,390.385,-2.1508,86.592,27.0,10.0,5.0,10.0,4.0,154.0,0.0,2.0,3.0,3.0,155.14,155.4581001,1.799069717,578.0614323
6393,B-3375,"1-naphthalenepropanoic acid, .beta.-amino-, ()","InChI=1S/C13H13NO2/c14-12(8-13(15)16)11-7-3-5-9-4-1-2-6-10(9)11/h1-7,12H,8,14H2,(H,15,16)/t12-/m1/s1",BIOQBKBTOAMMDG-GFCCVEGCSA-N,[NH3+][C@H](CC([O-])=O)c1cccc2ccccc12,-1.5902,0.0,1.0,G1,215.252,0.2628,59.2011,16.0,2.0,1.0,3.0,3.0,82.0,2.0,0.0,0.0,2.0,67.77,93.50354054,2.473003985,516.8264504