,ID,Name,InChI,InChIKey,SMILES,Solubility,SD,Ocurrences,Group,MolWt,MolLogP,MolMR,HeavyAtomCount,NumHAcceptors,NumHDonors,NumHeteroatoms,NumRotatableBonds,NumValenceElectrons,NumAromaticRings,NumSaturatedRings,NumAliphaticRings,RingCount,TPSA,LabuteASA,BalabanJ,BertzCT
302,A-501,strontium(2+) ion hydrogen phosphate,"InChI=1S/H3O4P.Sr/c1-5(2,3)4;/h(H3,1,2,3,4);/q;+2/p-3",HKSVWJWYDJQNEV-UHFFFAOYSA-K,[Sr++].[O-][P]([O-])([O-])=O,-3.468385388,0.0,1.0,G1,182.59,-3.2054,13.3605,6.0,4.0,0.0,6.0,0.0,32.0,0.0,0.0,0.0,0.0,86.25,71.69461663,0.0,53.6836744
57,A-81,"2,2-dimethyl-3-(3-methylphenyl)propan-1-ol","InChI=1S/C12H18O/c1-10-5-4-6-11(7-10)8-12(2,3)9-13/h4-7,13H,8-9H2,1-3H3",FYMOBFDUZIDKMI-UHFFFAOYSA-N,Cc1cccc(CC(C)(C)CO)c1,-2.826535469,0.0,1.0,G1,178.275,2.55602,55.7498,13.0,1.0,1.0,1.0,3.0,72.0,1.0,0.0,0.0,1.0,20.23,80.41528956,2.743151502,276.2078951
4697,B-1459,simetone,"InChI=1S/C8H15N5O/c1-4-9-6-11-7(10-5-2)13-8(12-6)14-3/h4-5H2,1-3H3,(H2,9,10,11,12,13)",HKAMKLBXTLTVCN-UHFFFAOYSA-N,CCNc1nc(NCC)nc(OC)n1,-1.7898,0.0,1.0,G1,197.242,0.7438,54.7064,14.0,6.0,2.0,6.0,5.0,78.0,1.0,0.0,0.0,1.0,71.96,83.12832723,2.880038731,266.8101697
9825,G-906,Oxamyl,"InChI=1S/C7H13N3O3S/c1-8-7(12)13-9-5(14-4)6(11)10(2)3/h1-4H3,(H,8,12)",KZAUOCCYDRDERY-UHFFFAOYSA-N,CNC(=O)ON=C(SC)C(=O)N(C)C,0.106,0.0,1.0,G1,219.266,0.1071,55.1847,14.0,5.0,1.0,7.0,1.0,80.0,0.0,0.0,0.0,0.0,71.0,86.64766001,4.399365653,252.5645748
8491,C-2571,chlorfluazuron;  atabron,"InChI=1S/C20H9Cl3F5N3O3/c21-10-5-9(30-19(33)31-17(32)15-13(24)2-1-3-14(15)25)6-11(22)16(10)34-18-12(23)4-8(7-29-18)20(26,27)28/h1-7H,(H2,30,31,32,33)",UISUNVFOGSJSKD-UHFFFAOYSA-N,FC1=CC=CC(=C1C(=O)NC(=O)NC2=CC(=C(OC3=C(Cl)C=C(C=N3)C(F)(F)F)C(=C2)Cl)Cl)F,-8.65,0.0,1.0,G1,540.659,7.093,113.6279,34.0,4.0,2.0,14.0,4.0,178.0,3.0,0.0,0.0,3.0,80.32,202.1338553,1.743191058,1244.784513
5994,B-2932,"2,2',3,4',5,5'-hexachlorobiphenyl",InChI=1S/C12H4Cl6/c13-5-1-7(12(18)11(17)2-5)6-3-9(15)10(16)4-8(6)14/h1-4H,BQHCQAQLTCQFJZ-UHFFFAOYSA-N,Clc1cc(Cl)c(Cl)c(c1)c2cc(Cl)c(Cl)cc2Cl,-8.5801,0.00995,2.0,G3,360.882,7.274,81.938,18.0,0.0,0.0,6.0,1.0,94.0,2.0,0.0,0.0,2.0,0.0,134.3080947,2.728863016,620.4500799
7664,C-1261,chlorambucil,"InChI=1S/C14H19Cl2NO2/c15-8-10-17(11-9-16)13-6-4-12(5-7-13)2-1-3-14(18)19/h4-7H,1-3,8-11H2,(H,18,19)",JCKYGMPEJWAADB-UHFFFAOYSA-N,OC(=O)CCCC1=CC=C(C=C1)N(CCCl)CCCl,-3.4,0.0,1.0,G1,304.217,3.3779,80.6688,19.0,2.0,1.0,5.0,9.0,106.0,1.0,0.0,0.0,1.0,40.54,123.673062,2.554182686,375.5372835
6214,B-3180,"2-propenoic acid, 2,3,3-tribromo-","InChI=1S/C3HBr3O2/c4-1(2(5)6)3(7)8/h(H,7,8)",UKFXMSBXHCEXIK-UHFFFAOYSA-N,OC(=O)C(Br)=C(Br)Br,-1.3593,0.0,1.0,G1,308.751,2.4248,41.4428,8.0,1.0,1.0,5.0,1.0,46.0,0.0,0.0,0.0,0.0,37.3,71.33793089,4.226619287,135.4639616
7711,C-1346,"n1,n1,n4-trimethyl-n4-(butanoyl)sulfanilamide","InChI=1S/C13H20N2O3S/c1-5-6-13(16)15(4)11-7-9-12(10-8-11)19(17,18)14(2)3/h7-10H,5-6H2,1-4H3",HVRPQVNLNIHIRC-UHFFFAOYSA-N,CCCC(=O)N(C)C1=CC=C(C=C1)[S](=O)(=O)N(C)C,-2.16,0.0,1.0,G1,284.381,1.6998,75.6328,19.0,3.0,0.0,6.0,5.0,106.0,1.0,0.0,0.0,1.0,57.69,114.4279633,2.973446048,535.5116864
8848,E-885,Sulfisoxazole,"InChI=1S/C11H13N3O3S/c1-7-8(2)13-17-11(7)14-18(15,16)10-5-3-9(12)4-6-10/h3-6,14H,12H2,1-2H3",NHUHCSRWZMLRLA-UHFFFAOYSA-N,O=S(=O)(Nc(onc1C)c1C)c(ccc(N)c2)c2,-2.91,0.602384152,3.0,G4,267.31,1.67444,67.6399,18.0,5.0,2.0,7.0,3.0,96.0,2.0,0.0,0.0,2.0,98.22,104.8342439,2.327592361,659.3419266
9851,G-1043,RTI 24,"InChI=1S/C14H12ClN3O/c1-2-18-12-8-9(15)5-6-11(12)17-14(19)10-4-3-7-16-13(10)18/h3-8H,2H2,1H3,(H,17,19)",ZSFUDSWIVAQKEN-UHFFFAOYSA-N,CCN2c1cc(Cl)ccc1NC(=O)c3cccnc23 ,-5.36,0.0,1.0,G1,273.723,3.4587,76.3222,19.0,3.0,1.0,5.0,1.0,96.0,2.0,0.0,1.0,3.0,45.23,115.5716247,2.268324042,656.8893784
8330,C-2350,"1-(2,6-difluorophenyl)-1h,3h-thiazolo[3,4-a]benzimidazole;  nsc 625487","InChI=1S/C15H10F2N2S/c16-9-4-3-5-10(17)14(9)15-19-12-7-2-1-6-11(12)18-13(19)8-20-15/h1-7,15H,8H2",AMLBAOPYPUXEQF-UHFFFAOYSA-N,FC1=C(C2SCC3=NC4=C(C=CC=C4)[N]23)C(=CC=C1)F,-3.76,0.0,1.0,G1,288.322,4.1082,75.525,20.0,3.0,0.0,5.0,1.0,100.0,3.0,0.0,1.0,4.0,17.82,117.9871757,1.965651249,792.4887703
2272,A-3776,sodium (dimethylcarbamothioyl)sulfanide,"InChI=1S/C3H7NS2.Na/c1-4(2)3(5)6;/h1-2H3,(H,5,6);/q;+1/p-1",VMSRVIHUFHQIAL-UHFFFAOYSA-M,[Na+].CN(C)C([S-])=S,0.416892192,0.0,1.0,G1,143.212,-2.6162,33.65,7.0,2.0,0.0,4.0,0.0,36.0,0.0,0.0,0.0,0.0,3.24,77.15621546,0.0,63.95524698
9555,F-972,1-(3-methoxyphenyl)-~{N}-[1-(2-methoxyphenyl)propan-2-yl]propan-2-amine,"InChI=1S/C20H27NO2/c1-15(12-17-8-7-10-19(14-17)22-3)21-16(2)13-18-9-5-6-11-20(18)23-4/h5-11,14-16,21H,12-13H2,1-4H3",HSNNLWPVPBKGQW-UHFFFAOYSA-N,COC1=CC=CC(CC(C)NC(C)CC2=C(OC)C=CC=C2)=C1,-3.0,0.0,1.0,G1,313.441,3.8556,95.4557,23.0,3.0,1.0,3.0,8.0,124.0,2.0,0.0,0.0,2.0,30.49,139.1849869,1.898288663,612.0955982
2921,A-4900,"1,4-dibutyl (2Z)-but-2-enedioate","InChI=1S/C12H20O4/c1-3-5-9-15-11(13)7-8-12(14)16-10-6-4-2/h7-8H,3-6,9-10H2,1-2H3/b8-7-",JBSLOWBPDRZSMB-FPLPWBNLSA-N,CCCCOC(=O)\C=C/C(=O)OCCCC,-3.128034162,0.234267081,2.0,G3,228.288,2.2292,60.874,16.0,4.0,0.0,4.0,8.0,92.0,0.0,0.0,0.0,0.0,52.6,96.61414591,3.62821593,209.1732595
80,A-128,2-(2-{[2-(oxiran-2-ylmethoxy)phenyl]methyl}phenoxymethyl)oxirane; 2-(2-{[4-(oxiran-2-ylmethoxy)phenyl]methyl}phenoxymethyl)oxirane; 2-(4-{[4-(oxiran-2-ylmethoxy)phenyl]methyl}phenoxymethyl)oxirane,"InChI=1S/C6H6O.C3H5ClO.CH2O/c7-6-4-2-1-3-5-6;4-1-3-2-5-3;1-2/h1-5,7H;3H,1-2H2;1H2",IRJIVOLJTYKLEH-UHFFFAOYSA-N,Oc1ccccc1.ClCC2CO2.C=O,-4.034756761,0.0,1.0,G1,216.664,1.8313,55.6878,14.0,3.0,1.0,4.0,1.0,78.0,1.0,1.0,1.0,2.0,49.83,88.26957004,2.13e-07,224.068537
4939,B-1748,picloram,"InChI=1S/C6H3Cl3N2O2/c7-1-3(10)2(8)5(9)11-4(1)6(12)13/h(H2,10,11)(H,12,13)",NQQVFXUMIDALNH-UHFFFAOYSA-N,Nc1c(Cl)c(Cl)nc(C(O)=O)c1Cl,-2.7494,0.0097,2.0,G3,241.461,2.3222,50.6387,13.0,3.0,2.0,7.0,1.0,70.0,1.0,0.0,0.0,1.0,76.21,88.22143844,3.497381361,380.6323805
3246,A-5351,dipotassium adipate,"InChI=1S/C6H10O4.K/c7-5(8)3-1-2-4-6(9)10;/h1-4H2,(H,7,8)(H,9,10);/q;+1",WXRGTYANXHSUOX-UHFFFAOYSA-N,[K+].OC(=O)CCCCC(O)=O,0.732265228,0.0,1.0,G1,185.24,-2.28,33.7396,11.0,2.0,2.0,5.0,5.0,58.0,0.0,0.0,0.0,0.0,74.6,107.398038,0.0,118.5439728
9682,F-1148,"5-ethyl-5-pentan-2-yl-1,3-diazinane-2,4,6-trione","InChI=1S/C11H18N2O3/c1-4-6-7(3)11(5-2)8(14)12-10(16)13-9(11)15/h7H,4-6H2,1-3H3,(H2,12,13,14,15,16)",WEXRUCMBJFQVBZ-UHFFFAOYSA-N,CCCC(C)C1(CC)C(=O)NC(=O)NC1=O,-2.39,0.065134749,3.0,G5,226.276,1.185,58.4774,16.0,3.0,2.0,5.0,4.0,90.0,0.0,1.0,1.0,1.0,75.27,94.96713169,3.046033691,305.1913647
507,A-895,methyl 4-methylbenzoate,"InChI=1S/C9H10O2/c1-7-3-5-8(6-4-7)9(10)11-2/h3-6H,1-2H3",QSSJZLPUHJDYKF-UHFFFAOYSA-N,COC(=O)c1ccc(C)cc1,-2.576720352,0.02243331,3.0,G5,150.177,1.78162,42.5185,11.0,2.0,0.0,2.0,1.0,58.0,1.0,0.0,0.0,1.0,26.3,65.80129679,2.895348036,248.7701726
423,A-726,4-[2-(4-aminophenyl)ethyl]aniline,"InChI=1S/C14H16N2/c15-13-7-3-11(4-8-13)1-2-12-5-9-14(16)10-6-12/h3-10H,1-2,15-16H2",UHNUHZHQLCGZDA-UHFFFAOYSA-N,Nc1ccc(CCc2ccc(N)cc2)cc1,-3.645700574,0.0,1.0,G1,212.296,2.6362,69.1168,16.0,2.0,2.0,2.0,3.0,82.0,2.0,0.0,0.0,2.0,52.04,95.89816295,1.966014635,397.666487
8025,C-1908,mepivacaine,"InChI=1S/C15H22N2O/c1-11-7-6-8-12(2)14(11)16-15(18)13-9-4-5-10-17(13)3/h6-8,13H,4-5,9-10H2,1-3H3,(H,16,18)",INWLQCZOYSRPNW-UHFFFAOYSA-N,CN1CCCCC1C(=O)NC2=C(C)C=CC=C2C,-1.99,0.22175,2.0,G3,246.354,2.72624,74.8147,18.0,2.0,1.0,3.0,2.0,98.0,1.0,1.0,1.0,2.0,32.34,109.1812689,2.109479849,421.8697839
1237,A-2140,"methyl 4-[(2,5-dichlorophenyl)carbamoyl]-2-nitrobenzoate","InChI=1S/C15H10Cl2N2O5/c1-24-15(21)10-4-2-8(6-13(10)19(22)23)14(20)18-12-7-9(16)3-5-11(12)17/h2-7H,1H3,(H,18,20)",BVBSCSYCFCDVEU-UHFFFAOYSA-N,COC(=O)c1ccc(cc1[N+]([O-])=O)C(=O)Nc2cc(Cl)ccc2Cl,-5.965154646,0.0,1.0,G1,369.16,3.9405,88.8511,24.0,5.0,1.0,9.0,4.0,124.0,2.0,0.0,0.0,2.0,98.54,145.8292835,2.361359742,838.6092784
7512,C-928,n1-(2-nitrophenyl)sulfanilamide,"InChI=1S/C12H11N3O4S/c13-9-5-7-10(8-6-9)20(18,19)14-11-3-1-2-4-12(11)15(16)17/h1-8,14H,13H2",BRVWBJZREZWBRX-UHFFFAOYSA-N,NC1=CC=C(C=C1)[S](=O)(=O)NC2=CC=CC=C2[N+]([O-])=O,-4.49,0.0,1.0,G1,293.304,1.9778,74.7593,20.0,5.0,2.0,8.0,4.0,104.0,2.0,0.0,0.0,2.0,115.33,114.7920018,2.384275254,741.5526813
2590,A-4342,L-histidine monohydrochloride,"InChI=1S/C6H9N3O2.ClH/c7-5(6(10)11)1-4-2-8-3-9-4;/h2-3,5H,1,7H2,(H,8,9)(H,10,11);1H/t5-;/m0./s1",QZNNVYOVQUKYSC-JEDNCBNOSA-N,[Cl-].N[C@@H](Cc1[nH]cnc1)C(O)=O.[H+],-0.107649886,0.0,1.0,G1,191.618,-3.5194,39.0149,12.0,3.0,3.0,6.0,3.0,68.0,1.0,0.0,0.0,1.0,92.0,76.88857604,0.0,242.03722
2755,A-4601,"2,5-dichloroanilinium chloride","InChI=1S/C6H5Cl2N.ClH/c7-4-1-2-5(8)6(9)3-4;/h1-3H,9H2;1H",ZALVJCYWUBQENP-UHFFFAOYSA-N,[H+].[Cl-].Nc1cc(Cl)ccc1Cl,-2.07500028,0.0,1.0,G1,198.48,-0.3079,41.9864,10.0,1.0,1.0,4.0,0.0,56.0,1.0,0.0,0.0,1.0,26.02,77.01571789,0.0,229.0674223
8544,D-954,1-methyl-4-methoxycarbonyl,"InChI=1S/C7H11NO3/c1-8-4-5(3-6(8)9)7(10)11-2/h5H,3-4H2,1-2H3",JFZRRXGXEHUJCI-UHFFFAOYSA-N,COC(=O)C1CN(C)C(=O)C1,0.804,0.0,1.0,G1,157.169,-0.3623,37.76,11.0,3.0,0.0,4.0,1.0,62.0,0.0,1.0,1.0,1.0,46.61,65.11949566,2.531867847,190.1247076
5170,B-2002,"quinoxaline, 5,6,7,8-tetrachloro-",InChI=1S/C8H2Cl4N2/c9-3-4(10)6(12)8-7(5(3)11)13-1-2-14-8/h1-2H,NHTGQOXRZFUGJX-UHFFFAOYSA-N,Clc1c(Cl)c(Cl)c2nccnc2c1Cl,-5.428,0.0,1.0,G1,267.93,4.2434,59.578,14.0,2.0,0.0,6.0,0.0,72.0,2.0,0.0,0.0,2.0,25.78,99.76542852,3.021805296,465.6577056
4596,B-1336,2-nitrobenzyl alcohol,"InChI=1S/C7H7NO3/c9-5-6-3-1-2-4-7(6)8(10)11/h1-4,9H,5H2",BWRBVBFLFQKBPT-UHFFFAOYSA-N,OCc1ccccc1[N+]([O-])=O,-1.4861,0.0,1.0,G1,153.137,1.0871,39.0192,11.0,3.0,1.0,4.0,2.0,58.0,1.0,0.0,0.0,1.0,63.37,63.24355471,3.121219319,272.1431256
8101,C-2029,n-(3-tolyl)anthranilic  acid;  2-(3-tolylamino)benzoic acid,"InChI=1S/C14H13NO2/c1-10-5-4-6-11(9-10)15-13-8-3-2-7-12(13)14(16)17/h2-9,15H,1H3,(H,16,17)",JODCQKTVDXZQEP-UHFFFAOYSA-N,CC1=CC=CC(=C1)NC2=CC=CC=C2C(O)=O,-5.06,0.0,1.0,G1,227.263,3.43682,67.863,17.0,2.0,2.0,3.0,3.0,86.0,2.0,0.0,0.0,2.0,49.33,99.72399959,2.329483875,549.4234028
8288,C-2295,dexclamol,"InChI=1S/C24H29NO/c1-16(2)24(26)12-13-25-15-21-19-8-4-3-6-17(19)10-11-18-7-5-9-20(23(18)21)22(25)14-24/h3-9,16,21-22,26H,10-15H2,1-2H3",UPMOVJBGNREKJV-UHFFFAOYSA-N,CC(C)C1(O)CCN2CC3C4=C(CCC5=C3C(=CC=C5)C2C1)C=CC=C4,-3.81,0.0,1.0,G1,347.502,4.4547,105.4708,26.0,2.0,1.0,2.0,1.0,136.0,2.0,1.0,3.0,5.0,23.47,156.4043767,1.647492484,841.8543295
1413,A-2446,lithium octadec-9-enoate,"InChI=1S/C18H34O2.Li/c1-2-3-4-5-6-7-8-9-10-11-12-13-14-15-16-17-18(19)20;/h9-10H,2-8,11-17H2,1H3,(H,19,20);/q;+1/p-1/b10-9-;",AVOVSJYQRZMDQJ-KVVVOXFISA-M,[Li+].CCCCCCCC\C=C/CCCCCCCC([O-])=O,-6.79723893,0.0,1.0,G1,288.401,1.7778,84.459,21.0,2.0,0.0,3.0,15.0,118.0,0.0,0.0,0.0,0.0,40.13,143.5069853,0.0,239.3728253
4161,B-804,"1,2-ethanediamine, n,n'-bis(phenylmethyl)-","InChI=1S/C16H20N2/c1-3-7-15(8-4-1)13-17-11-12-18-14-16-9-5-2-6-10-16/h1-10,17-18H,11-14H2",JUHORIMYRDESRB-UHFFFAOYSA-N,C(CNCc1ccccc1)NCc2ccccc2,-1.7865,0.28825,2.0,G3,240.35,2.566,76.2974,18.0,2.0,2.0,2.0,7.0,94.0,2.0,0.0,0.0,2.0,24.06,109.0479902,1.543174095,381.8646529
3603,A-6033,"methyl 3-({4-[(E)-2-(2,4-dinitrophenyl)diazen-1-yl]-3-acetamidophenyl}(3-methoxy-3-oxopropyl)amino)propanoate","InChI=1S/C22H24N6O9/c1-14(29)23-19-12-15(26(10-8-21(30)36-2)11-9-22(31)37-3)4-6-17(19)24-25-18-7-5-16(27(32)33)13-20(18)28(34)35/h4-7,12-13H,8-11H2,1-3H3,(H,23,29)",FIIPIQBWGBRMTN-UHFFFAOYSA-N,COC(=O)CCN(CCC(=O)OC)c1ccc(N=Nc2ccc(cc2[N+]([O-])=O)[N+]([O-])=O)c(NC(C)=O)c1,-7.332831336,0.0,1.0,G1,516.467,3.8094,130.1515,37.0,12.0,1.0,15.0,12.0,196.0,2.0,0.0,0.0,2.0,195.94,209.9120004,2.445182656,1211.117366
7751,C-1417,"tetrachlorvinphos;  2-chloro-1-(2,4,5-trichlorophenyl)vinyl dimethyl phosphate","InChI=1S/C10H9Cl4O4P/c1-16-19(15,17-2)18-10(5-11)6-3-8(13)9(14)4-7(6)12/h3-5H,1-2H3/b10-5-",UBCKGWBNUIFUST-YHYXMXQVSA-N,CO[P](=O)(OC)OC(=C\Cl)/C1=C(Cl)C=C(Cl)C(=C1)Cl,-4.52,0.0,1.0,G1,365.964,5.6015,78.0115,19.0,4.0,0.0,9.0,5.0,106.0,1.0,0.0,0.0,1.0,44.76,130.3048798,3.195069219,538.5763442
7914,C-1737,3-(2-aminoethyl)indole;  tryptamine,"InChI=1S/C10H12N2/c11-6-5-8-7-12-10-4-2-1-3-9(8)10/h1-4,7,12H,5-6,11H2",APJYDQYYACXCRM-UHFFFAOYSA-N,NCCC1=C[NH]C2=C1C=CC=C2,-3.3,0.0,1.0,G1,160.22,1.6691,51.0571,12.0,1.0,2.0,2.0,2.0,62.0,2.0,0.0,0.0,2.0,41.81,71.392003,2.548405447,375.9739569
2949,A-4944,1-chloro-4-methylbenzene,"InChI=1S/C7H7Cl/c1-6-2-4-7(8)5-3-6/h2-5H,1H3",NPDACUSDTOMAMK-UHFFFAOYSA-N,Cc1ccc(Cl)cc1,-3.102385677,0.191765247,4.0,G5,126.586,2.64842,36.189,8.0,0.0,0.0,1.0,0.0,42.0,1.0,0.0,0.0,1.0,0.0,54.09961146,3.032455532,143.2466295
864,A-1494,disodium 6-hydroxy-5-[(E)-2-(4-sulfonatophenyl)diazen-1-yl]naphthalene-2-sulfonate,"InChI=1S/C16H12N2O7S2.2Na/c19-15-8-1-10-9-13(27(23,24)25)6-7-14(10)16(15)18-17-11-2-4-12(5-3-11)26(20,21)22;;/h1-9,17H,(H,20,21,22)(H,23,24,25);;/q;2*+1/p-2/b18-16+;;",TXVRKNUZLYFDTJ-DDVLFWKVSA-L,[Na+].[Na+].[O-][S](=O)(=O)c1ccc(N\N=C2\C(=O)C=Cc3cc(ccc23)[S]([O-])(=O)=O)cc1,-1.376746915,0.0,1.0,G1,452.377,-5.0851,93.0111,29.0,9.0,1.0,13.0,4.0,140.0,2.0,0.0,1.0,3.0,155.86,210.9137457,2.1e-06,1206.329429
7213,C-63,phenol,"InChI=1S/C6H6O/c7-6-4-2-1-3-5-6/h1-5,7H",ISWSIDIOOBJBQZ-UHFFFAOYSA-N,OC1=CC=CC=C1,-0.04,0.023415854,3.0,G5,94.113,1.3922,28.1068,7.0,1.0,1.0,1.0,0.0,36.0,1.0,0.0,0.0,1.0,20.23,42.22563687,3.02146531,134.1073697
3893,B-374,parethoxycaine,"InChI=1S/C15H23NO3/c1-4-16(5-2)11-12-19-15(17)13-7-9-14(10-8-13)18-6-3/h7-10H,4-6,11-12H2,1-3H3",OWWVHQUOYSPNNE-UHFFFAOYSA-N,CCOc1ccc(cc1)C(=O)OCCN(CC)CC,-2.7145,0.0,1.0,G1,265.353,2.5839,75.6815,19.0,4.0,0.0,4.0,8.0,106.0,1.0,0.0,0.0,1.0,38.77,114.8643284,2.403266119,371.482006
5150,B-1978,"lactic acid, 2-methyl-, isobutyl ester","InChI=1S/C8H16O3/c1-6(2)5-11-7(9)8(3,4)10/h6,10H,5H2,1-4H3",OMLWQIBXAJLLRC-UHFFFAOYSA-N,CC(C)COC(=O)C(C)(C)O,-0.7276,0.0,1.0,G1,160.213,0.9565,42.0948,11.0,3.0,1.0,3.0,3.0,66.0,0.0,0.0,0.0,0.0,46.53,67.36314691,3.712763519,132.7628219
5002,B-1822,4-methyloctane,"InChI=1S/C9H20/c1-4-6-8-9(3)7-5-2/h9H,4-8H2,1-3H3",DOGIHOCMZJUJNR-UHFFFAOYSA-N,CCCCC(C)CCC,-6.0474,0.0,1.0,G1,128.259,3.6128,43.597,9.0,0.0,0.0,0.0,5.0,56.0,0.0,0.0,0.0,0.0,0.0,59.65878794,2.954822573,48.0
4290,B-971,hematein,"InChI=1S/C16H12O6/c17-10-2-1-8-13-9-4-12(19)11(18)3-7(9)5-16(13,21)6-22-15(8)14(10)20/h1-4,17,19-21H,5-6H2",HLUCICHZHWJHLL-UHFFFAOYSA-N,Oc1ccc2c(OCC3(O)CC4=CC(=O)C(=CC4=C23)O)c1O,-2.6994,0.0,1.0,G1,300.266,1.3296,75.5552,22.0,6.0,4.0,6.0,0.0,112.0,1.0,0.0,3.0,4.0,107.22,124.446524,2.029475007,829.2829405
851,A-1474,hexyl 2-hydroxybenzoate,"InChI=1S/C13H18O3/c1-2-3-4-7-10-16-13(15)11-8-5-6-9-12(11)14/h5-6,8-9,14H,2-4,7,10H2,1H3",DUKPKQFHJQGTGU-UHFFFAOYSA-N,CCCCCCOC(=O)c1ccccc1O,-5.045878208,0.0,1.0,G1,222.284,3.1293,62.5313,16.0,3.0,1.0,3.0,6.0,88.0,1.0,0.0,0.0,1.0,46.53,96.055299,2.329775813,333.7045208
1364,A-2363,2-azabicyclo[2.2.1]hept-5-en-3-one,"InChI=1S/C6H7NO/c8-6-4-1-2-5(3-4)7-6/h1-2,4-5H,3H2,(H,7,8)",DDUFYKNOXPZZIW-UHFFFAOYSA-N,O=C1NC2CC1C=C2,0.936160808,0.0,1.0,G1,109.128,0.0609,29.1777,8.0,1.0,1.0,2.0,0.0,42.0,0.0,1.0,2.0,2.0,29.1,47.57408054,2.348838763,161.9114705
9025,F-170,2-[(2-amino-3-methylbutanoyl)amino]-3-methylbutanoic acid,"InChI=1S/C10H20N2O3/c1-5(2)7(11)9(13)12-8(6(3)4)10(14)15/h5-8H,11H2,1-4H3,(H,12,13)(H,14,15)",KRNYOVHEKOBTEF-UHFFFAOYSA-N,CC(C)C(N)C(=O)NC(C(=O)O)C(C)C,-0.4,0.0,1.0,G1,216.281,0.1951,57.2179,15.0,3.0,3.0,5.0,5.0,88.0,0.0,0.0,0.0,0.0,92.42,90.03076089,4.425354613,238.822
478,A-844,nickel(2+) ion oxalate,"InChI=1S/C2H2O4.Ni/c3-1(4)2(5)6;/h(H,3,4)(H,5,6);/q;+2/p-2",DOLZKNFSRCEOFV-UHFFFAOYSA-L,[Ni++].[O-]C(=O)C([O-])=O,-3.556228502,0.298698475,2.0,G3,146.711,-3.5163,10.014,7.0,4.0,0.0,5.0,0.0,42.0,0.0,0.0,0.0,0.0,80.26,49.06245747,0.0,75.69058447
9568,F-989,"5-amino-7-(3-amino-3-methylazetidin-1-yl)-1-cyclopropyl-6,8-difluoro-4-oxoquinoline-3-carboxylic acid","InChI=1S/C17H18F2N4O3/c1-17(21)5-22(6-17)14-10(18)12(20)9-13(11(14)19)23(7-2-3-7)4-8(15(9)24)16(25)26/h4,7H,2-3,5-6,20-21H2,1H3,(H,25,26)",WXMYDHQMJVPNTD-UHFFFAOYSA-N,CC1(N)CN(C2=C(F)C3=C(C(=O)C(C(=O)O)=CN3C3CC3)C(N)=C2F)C1,-4.38,0.0,1.0,G1,364.352,1.4324,92.5721,26.0,6.0,3.0,9.0,3.0,138.0,2.0,2.0,2.0,4.0,114.58,146.3385255,2.067858122,1019.310662
1745,A-2874,sodium oxidooxy-oxoborane hydrate,InChI=1S/BHO3.Na.H2O/c2-1-4-3;;/h3H;;1H2/q;+1;/p-1,MDGXUEVTGARGDK-UHFFFAOYSA-M,O.[Na+].[O-]OB=O,-0.823100201,0.0,1.0,G1,99.814,-5.5777,11.1393,6.0,3.0,0.0,6.0,1.0,30.0,0.0,0.0,0.0,0.0,80.86,57.3051837,-4.5e-08,21.509775
5215,B-2049,"2,3,6-trichlorophenoxyacetic acid","InChI=1S/C8H5Cl3O3/c9-4-1-2-5(10)8(7(4)11)14-3-6(12)13/h1-2H,3H2,(H,12,13)",GQOHYQAHKDLXCV-UHFFFAOYSA-N,OC(=O)COc1c(Cl)ccc(Cl)c1Cl,-2.6198,0.0,1.0,G1,255.484,3.1102,54.6028,14.0,2.0,1.0,6.0,3.0,76.0,1.0,0.0,0.0,1.0,46.53,95.14038711,2.945022769,365.0942913
4839,B-1630,"urea, tetraethyl-","InChI=1S/C9H20N2O/c1-5-10(6-2)9(12)11(7-3)8-4/h5-8H2,1-4H3",UWHSPZZUAYSGTB-UHFFFAOYSA-N,CCN(CC)C(=O)N(CC)CC,-0.6341,0.0,1.0,G1,172.272,1.79,51.238,12.0,1.0,0.0,3.0,4.0,72.0,0.0,0.0,0.0,0.0,23.55,75.33997738,4.122433524,114.490225
5962,B-2896,daimuron,"InChI=1S/C17H20N2O/c1-13-9-11-15(12-10-13)18-16(20)19-17(2,3)14-7-5-4-6-8-14/h4-12H,1-3H3,(H2,18,19,20)",NNYRZQHKCHEXSD-UHFFFAOYSA-N,Cc1ccc(NC(=O)NC(C)(C)c2ccccc2)cc1,-5.3495,0.0,1.0,G1,268.36,4.05182,82.8014,20.0,1.0,2.0,3.0,3.0,104.0,2.0,0.0,0.0,2.0,41.13,119.5744544,2.020928592,573.6988162
480,A-851,"1,4-dimethyl 2-aminobenzene-1,4-dicarboxylate","InChI=1S/C10H11NO4/c1-14-9(12)6-3-4-7(8(11)5-6)10(13)15-2/h3-5H,11H2,1-2H3",DSSKDXUDARIMTR-UHFFFAOYSA-N,COC(=O)c1ccc(c(N)c1)C(=O)OC,-3.718503765,0.0,1.0,G1,209.201,0.842,53.5334,15.0,5.0,1.0,5.0,2.0,80.0,1.0,0.0,0.0,1.0,78.62,86.78119693,3.082627654,400.4089037
7609,C-1130,n-(hydroxymethyl)benzamide,"InChI=1S/C8H9NO2/c10-6-9-8(11)7-4-2-1-3-5-7/h1-5,10H,6H2,(H,9,11)",UOUBPDZUBVJZOQ-UHFFFAOYSA-N,OCNC(=O)C1=CC=CC=C1,-0.52,0.0,1.0,G1,151.165,0.3662,40.994,11.0,2.0,2.0,3.0,2.0,58.0,1.0,0.0,0.0,1.0,49.33,64.66690538,2.69300795,233.1071909
6948,B-4260,propylamine,"InChI=1S/C3H9N/c1-2-3-4/h2-4H2,1H3",WGYKZJWCGVVSQN-UHFFFAOYSA-N,CCCN,1.2283,0.0,1.0,G1,59.112,0.3551,19.3454,4.0,1.0,1.0,1.0,1.0,26.0,0.0,0.0,0.0,0.0,26.02,26.80902595,1.974744871,5.245112498
4088,B-704,"benzaldehyde, 4-ethoxy-3-methoxy-","InChI=1S/C10H12O3/c1-3-13-9-5-4-8(7-11)6-10(9)12-2/h4-7H,3H2,1-2H3",BERFDQAMXIBOHM-UHFFFAOYSA-N,CCOc1ccc(C=O)cc1OC,-2.1913,0.0,1.0,G1,180.203,1.9064,49.5505,13.0,3.0,0.0,3.0,4.0,70.0,1.0,0.0,0.0,1.0,35.53,77.27978414,2.998837783,294.2213743
9089,F-291,"[(~{Z})-2-chloro-1-(2,4,5-trichlorophenyl)ethenyl] dimethyl phosphate","InChI=1S/C10H9Cl4O4P/c1-16-19(15,17-2)18-10(5-11)6-3-8(13)9(14)4-7(6)12/h3-5H,1-2H3",UBCKGWBNUIFUST-UHFFFAOYSA-N,COP(=O)(OC)OC(=CCl)C1=C(Cl)C=C(Cl)C(Cl)=C1,-4.52,0.0,1.0,G1,365.964,5.6015,78.0115,19.0,4.0,0.0,9.0,5.0,106.0,1.0,0.0,0.0,1.0,44.76,130.3048798,3.195069219,538.5763442
8205,C-2179,"2,4,4',6-tetrachlorodiphenyl  ether",InChI=1S/C12H6Cl4O/c13-7-1-3-9(4-2-7)17-12-10(15)5-8(14)6-11(12)16/h1-6H,YCWRSOTXXJYCKF-UHFFFAOYSA-N,ClC1=CC=C(OC2=C(Cl)C=C(Cl)C=C2Cl)C=C1,-6.83,0.0,1.0,G1,307.991,6.0925,72.998,17.0,1.0,0.0,5.0,2.0,88.0,2.0,0.0,0.0,2.0,9.23,118.8151075,2.328198437,513.6970467
7477,C-848,disopyramide,"InChI=1S/C21H29N3O/c1-16(2)24(17(3)4)15-13-21(20(22)25,18-10-6-5-7-11-18)19-12-8-9-14-23-19/h5-12,14,16-17H,13,15H2,1-4H3,(H2,22,25)",UVTNFZQICZKOEM-UHFFFAOYSA-N,CC(C)N(CCC(C(N)=O)(C1=CC=CC=C1)C2=NC=CC=C2)C(C)C,-1.7,0.0,1.0,G1,339.483,3.3619,102.2484,25.0,3.0,1.0,4.0,8.0,134.0,2.0,0.0,0.0,2.0,59.22,150.6188129,2.502189299,620.5552218
7207,C-43,hexachloroethane,"InChI=1S/C2Cl6/c3-1(4,5)2(6,7)8",VHHHONWQHHHLTI-UHFFFAOYSA-N,ClC(Cl)(Cl)C(Cl)(Cl)Cl,-3.94,0.338436172,3.0,G5,236.74,3.7268,40.58,8.0,0.0,0.0,6.0,0.0,50.0,0.0,0.0,0.0,0.0,0.0,76.9237905,4.020391543,61.509775
4147,B-786,"1,3-diphenyl-1-triazene","InChI=1S/C12H11N3/c1-3-7-11(8-4-1)13-15-14-12-9-5-2-6-10-12/h1-10H,(H,13,14)",ALIFPGGMJDWMJH-UHFFFAOYSA-N,N(N=Nc1ccccc1)c2ccccc2,-2.596,0.0,1.0,G1,197.241,3.7974,61.0227,15.0,2.0,1.0,3.0,3.0,74.0,2.0,0.0,0.0,2.0,36.75,88.45527337,1.968643821,423.1349243