,ID,Name,InChI,InChIKey,SMILES,Solubility,SD,Ocurrences,Group,MolWt,MolLogP,MolMR,HeavyAtomCount,NumHAcceptors,NumHDonors,NumHeteroatoms,NumRotatableBonds,NumValenceElectrons,NumAromaticRings,NumSaturatedRings,NumAliphaticRings,RingCount,TPSA,LabuteASA,BalabanJ,BertzCT
5209,B-2043,"1,2-bis(2-chloroethylsulfonyl)ethane","InChI=1S/C6H12Cl2O4S2/c7-1-3-13(9,10)5-6-14(11,12)4-2-8/h1-6H2",FQMRVYDYXSOKHL-UHFFFAOYSA-N,ClCC[S](=O)(=O)CC[S](=O)(=O)CCCl,-1.4486,0.0,1.0,G1,283.198,0.2936,58.7476,14.0,4.0,0.0,8.0,7.0,86.0,0.0,0.0,0.0,0.0,68.28,94.42129082,4.189486887,310.027794
2080,A-3434,hexyl D-glucoside,"InChI=1S/C12H24O6/c1-2-3-4-5-6-17-12-11(16)10(15)9(14)8(7-13)18-12/h8-16H,2-7H2,1H3/t8-,9-,10+,11-,12?/m1/s1",JVAZJLFFSJARQM-OZRWLHRGSA-N,CCCCCCOC1O[C@H](CO)[C@@H](O)[C@H](O)[C@H]1O,-0.658698746,0.0,1.0,G1,264.318,-0.6168,63.8612,18.0,6.0,4.0,6.0,7.0,108.0,0.0,1.0,1.0,1.0,99.38,107.1518086,2.345649402,222.613175
4381,B-1081,"ethanedione, bis(2-hydroxy-5-nitrophenyl)-","InChI=1S/C14H8N2O8/c17-11-3-1-7(15(21)22)5-9(11)13(19)14(20)10-6-8(16(23)24)2-4-12(10)18/h1-6,17-18H",MLHGVVVOOIXMQL-UHFFFAOYSA-N,Oc1ccc(cc1C(=O)C(=O)c2cc(ccc2O)[N+]([O-])=O)[N+]([O-])=O,-3.5214,0.0,1.0,G1,332.224,1.9798,78.1834,24.0,8.0,2.0,10.0,5.0,122.0,2.0,0.0,0.0,2.0,160.88,132.4358447,2.493645209,816.8383345
3136,A-5210,"N,N,N',N'-tetrakis(2-hydroxypropyl)hexanediamide","InChI=1S/C18H36N2O6/c1-13(21)9-19(10-14(2)22)17(25)7-5-6-8-18(26)20(11-15(3)23)12-16(4)24/h13-16,21-24H,5-12H2,1-4H3",UUCAVBDCVCFNIN-UHFFFAOYSA-N,CC(O)CN(CC(C)O)C(=O)CCCCC(=O)N(CC(C)O)CC(C)O,0.210993363,0.0,1.0,G1,376.494,-0.2728,98.3512,26.0,6.0,4.0,8.0,13.0,154.0,0.0,0.0,0.0,0.0,121.54,155.9629135,4.378610288,354.4854987
5415,B-2274,"2,4'-dichlorodiphenyl ether",InChI=1S/C12H8Cl2O/c13-9-5-7-10(8-6-9)15-12-4-2-1-3-11(12)14/h1-8H,MWKULKMSBBSGTP-UHFFFAOYSA-N,Clc1ccc(Oc2ccccc2Cl)cc1,-5.52,0.0,1.0,G1,239.101,4.7857,62.978,15.0,1.0,0.0,3.0,2.0,76.0,2.0,0.0,0.0,2.0,9.23,98.20857501,2.221797194,451.434228
4951,B-1763,"1,2-cyclohexanediol, 1-methyl-4-(1-methylethenyl","InChI=1S/C10H18O2/c1-7(2)8-4-5-10(3,12)9(11)6-8/h8-9,11-12H,1,4-6H2,2-3H3",WKZWTZTZWGWEGE-UHFFFAOYSA-N,CC(=C)C1CCC(C)(O)C(O)C1,-0.2311,0.0,1.0,G1,170.252,1.4745,48.7856,12.0,2.0,2.0,2.0,1.0,70.0,0.0,1.0,1.0,1.0,40.46,73.91676338,2.578346291,184.2776008
2028,A-3347,sodium hydroxymethanesulfinate,"InChI=1S/CH4O3S.Na/c2-1-5(3)4;/h2H,1H2,(H,3,4);/q;+1/p-1",XWGJFPHUCFXLBL-UHFFFAOYSA-M,[Na+].OC[S]([O-])=O,0.731520726,0.098134915,2.0,G3,118.089,-4.1807,16.0056,6.0,3.0,1.0,5.0,1.0,32.0,0.0,0.0,0.0,0.0,60.36,60.32437623,0.0,46.05785641
2867,A-4798,4-methylene-2-(2-methylprop-1-en-1-yl)tetrahydro-2H-pyran,"InChI=1S/C10H16O/c1-8(2)6-10-7-9(3)4-5-11-10/h6,10H,3-5,7H2,1-2H3",JRIATCFPZFOVNP-UHFFFAOYSA-N,CC(C)=CC1CC(=C)CCO1,-2.510422359,0.0,1.0,G1,152.237,2.6878,47.545,11.0,1.0,0.0,1.0,1.0,62.0,0.0,1.0,1.0,1.0,9.23,68.75223807,2.463641082,175.3117986
1849,A-3025,3-chloro-2-methylaniline,"InChI=1S/C7H8ClN/c1-5-6(8)3-2-4-7(5)9/h2-4H,9H2,1H3",ZUVPLKVDZNDZCM-UHFFFAOYSA-N,Cc1c(N)cccc1Cl,-2.15106632,0.326606257,2.0,G3,141.601,2.23062,40.6014,9.0,1.0,1.0,2.0,0.0,48.0,1.0,0.0,0.0,1.0,26.02,59.43950216,3.247834734,199.9061776
9980,I-93,verapamil,"InChI=1S/C27H38N2O4/c1-20(2)27(19-28,22-10-12-24(31-5)26(18-22)33-7)14-8-15-29(3)16-13-21-9-11-23(30-4)25(17-21)32-6/h9-12,17-18,20H,8,13-16H2,1-7H3",SGTNSNPWRIOYBX-UHFFFAOYSA-N,COc1ccc(CCN(C)CCCC(C#N)(C(C)C)c2ccc(OC)c(OC)c2)cc1OC,-3.98,0.0,1.0,G1,454.611,5.09308,131.656,33.0,6.0,0.0,6.0,13.0,180.0,2.0,0.0,0.0,2.0,63.95,198.5692233,2.023333419,938.203977
3692,B-59,3-isothiocyanato-1-propene,"InChI=1S/C4H5NS/c1-2-3-5-4-6/h2H,1,3H2",ZOJBYZNEUISWFT-UHFFFAOYSA-N,C=CCN=C=S,-1.6953,0.0,1.0,G1,99.158,1.2752,30.09,6.0,2.0,0.0,2.0,2.0,32.0,0.0,0.0,0.0,0.0,12.36,42.39857707,3.073915509,81.54887502
767,A-1337,"1,1,2,2,3,3,4,4-octafluoro-1,4-diiodobutane","InChI=1S/C4F8I2/c5-1(6,3(9,10)13)2(7,8)4(11,12)14",JILAKKYYZPDQBE-UHFFFAOYSA-N,FC(F)(I)C(F)(F)C(F)(F)C(F)(F)I,-3.314476262,0.0,1.0,G1,453.836,4.3126,47.828,14.0,0.0,0.0,10.0,3.0,86.0,0.0,0.0,0.0,0.0,0.0,99.68203684,5.300082078,188.3616189
5804,B-2719,"benzamide, n-hydroxy-n-1-naphthalenyl-","InChI=1S/C17H13NO2/c19-17(14-8-2-1-3-9-14)18(20)16-12-6-10-13-7-4-5-11-15(13)16/h1-12,20H",PZBPQFNCQFUIOP-UHFFFAOYSA-N,ON(C(=O)c1ccccc1)c2cccc3ccccc23,-3.3065,0.0,1.0,G1,263.296,3.8758,78.986,20.0,2.0,1.0,3.0,2.0,98.0,3.0,0.0,0.0,3.0,40.54,116.204732,2.049692342,747.7945663
8112,C-2046,"rufinamide;  1-(2,6-difluorobenzyl)-1h-1,2,3-triazole-4-carboxamide","InChI=1S/C10H8F2N4O/c11-7-2-1-3-8(12)6(7)4-16-5-9(10(13)17)14-15-16/h1-3,5H,4H2,(H2,13,17)",POGQSBRIGCQNEG-UHFFFAOYSA-N,NC(=O)C1=C[N](CC2=C(F)C=CC=C2F)N=N1,-3.5,0.0,1.0,G1,238.197,0.7035,53.9999,17.0,4.0,1.0,7.0,3.0,88.0,2.0,0.0,0.0,2.0,73.8,94.84620016,2.282246141,546.9335829
1297,A-2252,Copper; methanesulfonic acid,"InChI=1S/CH4O3S.Cu/c1-5(2,3)4;/h1H3,(H,2,3,4);",SDFNZYMSEOUVIF-UHFFFAOYSA-N,[Cu].C[S](O)(=O)=O,0.732330182,0.0,1.0,G1,159.653,-0.4985,17.4726,6.0,2.0,1.0,5.0,0.0,43.0,0.0,0.0,0.0,0.0,54.37,46.96350731,0.0,93.96160537
825,A-1431,11-ethyl-5-methylpentadecanoic acid,"InChI=1S/C18H36O2/c1-4-6-13-17(5-2)14-9-7-8-11-16(3)12-10-15-18(19)20/h16-17H,4-15H2,1-3H3,(H,19,20)",DYGIZCLLGGJWQJ-UHFFFAOYSA-N,CCCCC(CC)CCCCCC(C)CCCC(O)=O,-5.056117837,0.0,1.0,G1,284.484,6.0443,87.0418,20.0,1.0,1.0,2.0,14.0,120.0,0.0,0.0,0.0,0.0,37.3,125.8990228,3.428311045,225.4581119
1104,A-1892,"butane-1,4-diol","InChI=1S/C4H10O2/c5-3-1-2-4-6/h5-6H,1-4H2",WERYXYBDKMZEQL-UHFFFAOYSA-N,OCCCCO,1.045169179,0.5,2.0,G3,90.122,-0.2488,23.4056,6.0,2.0,2.0,2.0,3.0,38.0,0.0,0.0,0.0,0.0,40.46,37.42254488,2.339092315,17.509775
6631,B-3691,2-methoxyphenol,"InChI=1S/C7H8O2/c1-9-7-5-3-2-4-6(7)8/h2-5,8H,1H3",LHGVFZTZFXWLCP-UHFFFAOYSA-N,COc1ccccc1O,-0.8221,0.560291486,3.0,G4,124.139,1.4008,34.6588,9.0,2.0,1.0,2.0,1.0,48.0,1.0,0.0,0.0,1.0,29.46,53.70412422,3.006524007,195.8625685
9019,F-164,"1,2-bis(2-chloroethylsulfinyl)ethane",InChI=1S/C6H12Cl2O2S2/c7-1-3-11(9)5-6-12(10)4-2-8/h1-6H2,NSCXMOJHKQIMKA-UHFFFAOYSA-N,O=S(CCCl)CCS(=O)CCCl,-2.04,0.0,1.0,G1,251.2,0.9614,57.1928,12.0,2.0,0.0,6.0,7.0,74.0,0.0,0.0,0.0,0.0,34.14,87.91900246,3.402570683,145.6270751
6646,B-3724,isobutyricacid,"InChI=1S/C4H8O2/c1-3(2)4(5)6/h3H,1-2H3,(H,5,6)",KQNPFQTWMSNSAP-UHFFFAOYSA-N,CC(C)C(O)=O,0.2777,0.284141495,2.0,G3,88.106,0.727,22.4738,6.0,1.0,1.0,2.0,1.0,36.0,0.0,0.0,0.0,0.0,37.3,36.78983322,3.257586161,56.56842503
9366,F-708,4-methylsulfonylbenzenecarboximidamide,"InChI=1S/C8H10N2O2S/c1-13(11,12)7-4-2-6(3-5-7)8(9)10/h2-5H,1H3,(H3,9,10)",ANPBNAUKOUYEGJ-UHFFFAOYSA-N,CS(=O)(=O)C1=CC=C(C(=N)N)C=C1,-1.38,0.0,1.0,G1,198.247,0.37417,50.5679,13.0,3.0,2.0,5.0,2.0,70.0,1.0,0.0,0.0,1.0,84.01,76.81192743,3.155268744,419.9621782
1810,A-2962,(2S)-2-aminopropanoic acid,"InChI=1S/C3H7NO2/c1-2(4)3(5)6/h2H,4H2,1H3,(H,5,6)",QNAYBMKLOCPYGJ-UHFFFAOYSA-N,CC(N)C(O)=O,0.267898616,0.023949308,2.0,G3,89.094,-0.5818,21.2852,6.0,2.0,2.0,3.0,1.0,36.0,0.0,0.0,0.0,0.0,63.32,35.76478181,3.257586161,59.81353753
8167,C-2125,"(-)-(r)-1,2-bis(2,6-dioxopiperazin-4-yl)propane;  nsc-129943;  icrf 159;  razoxane (+/-)","InChI=1S/C11H16N4O4/c1-7(15-5-10(18)13-11(19)6-15)2-14-3-8(16)12-9(17)4-14/h7H,2-6H2,1H3,(H,12,16,17)(H,13,18,19)",BMKDZUISNHGIBY-UHFFFAOYSA-N,CC(CN1CC(=O)NC(=O)C1)N2CC(=O)NC(=O)C2,-1.27,0.0,1.0,G1,268.273,-2.7083,63.7744,19.0,6.0,2.0,8.0,3.0,104.0,0.0,2.0,2.0,2.0,98.82,109.64249,1.907792686,404.4111225
8413,C-2486,"5-(4-fluorobenzenesulfonylimido)-4-methyl-2-sulfonamido-delta2-1,3,4-thiadiazoline","InChI=1S/C9H9FN4O4S3/c1-14-8(19-9(12-14)20(11,15)16)13-21(17,18)7-4-2-6(10)3-5-7/h2-5H,1H3,(H2,11,15,16)",YTIHPYNMOXPHQK-UHFFFAOYSA-N,CN1N=C(SC1=N[S](=O)(=O)C2=CC=C(F)C=C2)[S](N)(=O)=O,-2.03,0.0,1.0,G1,352.394,-0.4423,71.607,21.0,7.0,1.0,12.0,3.0,114.0,2.0,0.0,0.0,2.0,124.48,123.0338241,2.578403169,941.6241356
6109,B-3062,1h-imidazole-4-sulfonic acid,"InChI=1S/C3H4N2O3S/c6-9(7,8)3-1-4-2-5-3/h1-2H,(H,4,5)(H,6,7,8)",BONRIQWDXHCVOH-UHFFFAOYSA-N,O[S](=O)(=O)c1c[nH]cn1,0.1304,0.0,1.0,G1,148.143,-0.3436,28.4023,9.0,3.0,2.0,6.0,1.0,50.0,1.0,0.0,0.0,1.0,83.05,51.48884753,3.200427889,274.0163218
1010,A-1748,"1-(2,6,6-trimethylcyclohex-1-en-1-yl)pent-1-en-3-one","InChI=1S/C14H22O/c1-5-12(15)8-9-13-11(2)7-6-10-14(13,3)4/h8-9H,5-7,10H2,1-4H3/b9-8+",LMWNGLDCJDIIBR-CMDGGOBGSA-N,CCC(=O)/C=C/C1=C(C)CCCC1(C)C,-4.187455475,0.420773745,2.0,G3,206.329,4.0483,64.77,15.0,1.0,0.0,1.0,3.0,84.0,0.0,0.0,1.0,1.0,17.07,93.2599834,2.897763017,305.30039
4835,B-1625,tolazamide,"InChI=1S/C14H21N3O3S/c1-12-6-8-13(9-7-12)21(19,20)16-14(18)15-17-10-4-2-3-5-11-17/h6-9H,2-5,10-11H2,1H3,(H2,15,16,18)",OUDSBRTVNLOZBN-UHFFFAOYSA-N,Cc1ccc(cc1)[S](=O)(=O)NC(=O)NN2CCCCCC2,-3.6778,0.0,1.0,G1,311.407,1.77392,80.0732,21.0,4.0,2.0,7.0,3.0,116.0,1.0,1.0,1.0,2.0,78.51,125.0971009,1.95555051,575.9867251
2038,A-3365,"2,2-bis(hydroxymethyl)propane-1,3-diol","InChI=1S/C5H12O4/c6-1-5(2-7,3-8)4-9/h6-9H,1-4H2",WXZMFSXDPGVJKK-UHFFFAOYSA-N,OCC(CO)(CO)CO,-0.341616387,0.067813815,3.0,G5,136.147,-2.058,30.7762,9.0,4.0,4.0,4.0,4.0,56.0,0.0,0.0,0.0,0.0,80.92,53.37595449,3.824684203,51.84847143
4034,B-611,morpholine,"InChI=1S/C4H9NO/c1-3-6-4-2-5-1/h5H,1-4H2",YNAVUWVOSKDBBP-UHFFFAOYSA-N,C1COCCN1,1.0599,0.0,1.0,G1,87.122,-0.3938,23.6887,6.0,2.0,1.0,2.0,0.0,36.0,0.0,1.0,1.0,1.0,21.26,37.49165363,2.0,23.01955001
7642,C-1217,3-ethoxycarboxymethyl-5-fluorouracil;  3-(ethoxycarbonyloxymethyl)-5-fluorouracil,"InChI=1S/C8H9FN2O5/c1-2-15-8(14)16-4-11-6(12)5(9)3-10-7(11)13/h3H,2,4H2,1H3,(H,10,13)",PYIAFNMJTZYTJR-UHFFFAOYSA-N,CCOC(=O)OCN1C(=O)NC=C(F)C1=O,-1.46,0.0,1.0,G1,232.167,-0.1937,49.3877,16.0,6.0,1.0,8.0,3.0,88.0,1.0,0.0,0.0,1.0,90.39,88.41763119,2.821846062,491.9374166
868,A-1498,2-[(1Z)-({2-[(E)-[(2-hydroxyphenyl)methylidene]amino]propyl}imino)methyl]phenol,"InChI=1S/C17H18N2O2/c1-13(19-12-15-7-3-5-9-17(15)21)10-18-11-14-6-2-4-8-16(14)20/h2-9,11-13,18-19H,10H2,1H3/b14-11-,15-12-",OWGJODGIHAHWQP-GFCQZRJLSA-N,CC(CN\C=C/1C=CC=CC1=O)N\C=C/2C=CC=CC2=O,-3.172023424,0.0,1.0,G1,282.343,1.7121,83.3404,21.0,4.0,2.0,4.0,5.0,108.0,0.0,0.0,2.0,2.0,58.2,123.8518129,1.789712519,604.2796478
1550,A-2624,"2,3-bis(acetyloxy)propyl dodecanoate","InChI=1S/C19H34O6/c1-4-5-6-7-8-9-10-11-12-13-19(22)24-15-18(25-17(3)21)14-23-16(2)20/h18H,4-15H2,1-3H3",NBMAHNZMRSQCPG-UHFFFAOYSA-N,CCCCCCCCCCCC(=O)OCC(COC(C)=O)OC(C)=O,-6.378367614,0.0,1.0,G1,358.475,3.9453,94.99,25.0,6.0,0.0,6.0,15.0,146.0,0.0,0.0,0.0,0.0,78.9,151.1334111,3.70445751,380.1106071
4960,B-1773,p-bromophenylurea,"InChI=1S/C7H7BrN2O/c8-5-1-3-6(4-2-5)10-7(9)11/h1-4H,(H3,9,10,11)",PFQUUCXMPUNRLA-UHFFFAOYSA-N,NC(=O)Nc1ccc(Br)cc1,-1.6336,0.0,1.0,G1,215.05,1.9397,47.3481,11.0,1.0,2.0,4.0,1.0,58.0,1.0,0.0,0.0,1.0,55.12,72.71516782,2.736298072,257.6480131
7204,C-31,"1,3-diethyl-2-thiourea;  n,n'-diethylthiourea","InChI=1S/C5H12N2S/c1-3-6-5(8)7-4-2/h3-4H2,1-2H3,(H2,6,7,8)",FLVIGYVXZHLUHP-UHFFFAOYSA-N,CCNC(=S)NCC,-1.46,0.480956362,2.0,G3,132.232,0.4903,39.9514,8.0,1.0,2.0,3.0,2.0,48.0,0.0,0.0,0.0,0.0,24.06,55.6575241,3.055172204,64.82892142
4332,B-1017,citraconic acid,"InChI=1S/C5H6O4/c1-3(5(8)9)2-4(6)7/h2H,1H3,(H,6,7)(H,8,9)/b3-2-",HNEGQIOMVPPMNR-IHWYPQMZSA-N,C\C(=C\C(O)=O)C(O)=O,0.7795,0.24025,2.0,G3,130.099,0.1019,29.0286,9.0,2.0,2.0,4.0,2.0,50.0,0.0,0.0,0.0,0.0,74.6,51.42092816,4.169214534,167.7968083
2361,A-3933,"2-phenyl-4,5-dihydro-1H-imidazole; benzene-1,2,4,5-tetracarboxylic acid","InChI=1S/C10H6O8.C9H10N2/c11-7(12)3-1-4(8(13)14)6(10(17)18)2-5(3)9(15)16;1-2-4-8(5-3-1)9-10-6-7-11-9/h1-2H,(H,11,12)(H,13,14)(H,15,16)(H,17,18);1-5H,6-7H2,(H,10,11)",TZBVXASHYYFGHZ-UHFFFAOYSA-N,OC(=O)c1cc(C(O)=O)c(cc1C(O)=O)C(O)=O.C2CN=C(N2)c3ccccc3,-2.125310985,0.0,1.0,G1,400.343,1.5158,100.1279,29.0,6.0,5.0,10.0,5.0,150.0,2.0,0.0,1.0,3.0,173.59,163.3113002,2.3e-07,900.5187714
8246,C-2245,"2,3',4,4',5-pentachlorodiphenyl  ether",InChI=1S/C12H5Cl5O/c13-7-2-1-6(3-8(7)14)18-12-5-10(16)9(15)4-11(12)17/h1-5H,NRAVUGAGYOBXIG-UHFFFAOYSA-N,ClC1=CC=C(OC2=C(Cl)C=C(Cl)C(=C2)Cl)C=C1Cl,-7.83,0.0,1.0,G1,342.436,6.7459,78.008,18.0,1.0,0.0,6.0,2.0,94.0,2.0,0.0,0.0,2.0,9.23,129.1183737,2.33546013,597.2619083
1982,A-3265,bromide,InChI=1S/BrH/h1H,CPELXLSAUQHCOX-UHFFFAOYSA-N,[H+].[Br-],1.377544373,0.0,1.0,G1,80.912,-2.8835,1.112,1.0,0.0,0.0,1.0,0.0,8.0,0.0,0.0,0.0,0.0,0.0,19.36597824,0.0,2.0
9709,F-1182,1-[(2-carboxy-5-oxopyrrolidin-1-yl)methyl]-5-oxopyrrolidine-2-carboxylic acid,"InChI=1S/C11H14N2O6/c14-8-3-1-6(10(16)17)12(8)5-13-7(11(18)19)2-4-9(13)15/h6-7H,1-5H2,(H,16,17)(H,18,19)",XAYYGTJLXVXLMB-UHFFFAOYSA-N,O=C(O)C1CCC(=O)N1CN1C(=O)CCC1C(=O)O,-1.31,0.0,1.0,G1,270.241,-0.9049,59.8746,19.0,4.0,2.0,8.0,4.0,104.0,0.0,2.0,2.0,2.0,115.22,108.1312331,2.137769473,408.4663643
7348,C-507,vitavax;  carboxin,"InChI=1S/C12H13NO2S/c1-9-11(16-8-7-15-9)12(14)13-10-5-3-2-4-6-10/h2-6H,7-8H2,1H3,(H,13,14)",GYSSRZJIHXQEHQ-UHFFFAOYSA-N,CC1=C(SCCO1)C(=O)NC2=CC=CC=C2,-3.14,0.03215,2.0,G3,235.308,2.62,66.1817,16.0,3.0,1.0,4.0,2.0,84.0,1.0,0.0,1.0,2.0,38.33,98.87366116,2.086650444,414.2867539
723,A-1256,1-methoxy-2-methylbenzene,"InChI=1S/C8H10O/c1-7-5-3-4-6-8(7)9-2/h3-6H,1-2H3",DTFKRVXLBCAIOZ-UHFFFAOYSA-N,COc1ccccc1C,-2.689083393,0.0,1.0,G1,122.167,2.00362,37.731,9.0,1.0,0.0,1.0,1.0,48.0,1.0,0.0,0.0,1.0,9.23,55.27483258,3.006524007,193.514053
7003,B-4336,"S-(1,2-Dichlorovinyl)-L-cysteine","InChI=1S/C5H7Cl2NO2S/c6-1-4(7)11-2-3(8)5(9)10/h1,3H,2,8H2,(H,9,10)/b4-1+/t3-/m0/s1",PJIHCWJOTSJIPQ-AGFFZDDWSA-N,N[C@@H](CSC(/Cl)=C/Cl)C(O)=O,-1.4895,0.0,1.0,G1,216.089,1.408,47.8582,11.0,3.0,2.0,6.0,4.0,64.0,0.0,0.0,0.0,0.0,63.32,78.53470548,3.623760116,173.8653528
8161,C-2115,ibuprofen ester iic; n-methyl-n-[2-(2'-(4''-isobutylphenyl)propanoyloxy)acetyl]glycineamide,"InChI=1S/C18H26N2O4/c1-12(2)9-14-5-7-15(8-6-14)13(3)18(23)24-11-17(22)20(4)10-16(19)21/h5-8,12-13H,9-11H2,1-4H3,(H2,19,21)",KHKOSGDSOXGMOO-UHFFFAOYSA-N,CC(C)CC1=CC=C(C=C1)C(C)C(=O)OCC(=O)N(C)CC(N)=O,-3.41,0.0,1.0,G1,334.416,1.4755,91.1894,24.0,4.0,1.0,6.0,8.0,132.0,1.0,0.0,0.0,1.0,89.7,142.5085444,2.549690099,581.1864862
1507,A-2573,docosan-1-ol,"InChI=1S/C22H46O/c1-2-3-4-5-6-7-8-9-10-11-12-13-14-15-16-17-18-19-20-21-22-23/h23H,2-22H2,1H3",NOPFSRXAKWQILS-UHFFFAOYSA-N,CCCCCCCCCCCCCCCCCCCCCCO,-5.514028148,0.0,1.0,G1,326.609,7.8006,105.0998,23.0,1.0,1.0,1.0,20.0,140.0,0.0,0.0,0.0,0.0,20.23,147.1972692,2.921962194,170.4117611
7397,C-644,1-(4-methylphenylsulfonyl)cyclohexanecarboxylic acid methyl ester,"InChI=1S/C15H20O4S/c1-12-6-8-13(9-7-12)20(17,18)15(14(16)19-2)10-4-3-5-11-15/h6-9H,3-5,10-11H2,1-2H3",XBQBUJRJLAOQHD-UHFFFAOYSA-N,COC(=O)C1(CCCCC1)[S](=O)(=O)C2=CC=C(C)C=C2,-4.61,0.0,1.0,G1,296.388,2.64462,76.1968,20.0,4.0,0.0,5.0,3.0,110.0,1.0,1.0,1.0,2.0,60.44,119.6105167,2.517820344,580.8044578
6076,B-3024,fluotrimazole,"InChI=1S/C22H16F3N3/c23-22(24,25)20-13-7-12-19(14-20)21(28-16-26-15-27-28,17-8-3-1-4-9-17)18-10-5-2-6-11-18/h1-16H",LXMQMMSGERCRSU-UHFFFAOYSA-N,FC(F)(F)c1cccc(c1)C(n2cncn2)(c3ccccc3)c4ccccc4,-8.403,0.0,1.0,G1,379.385,5.1371,99.63,28.0,3.0,0.0,6.0,4.0,140.0,4.0,0.0,0.0,4.0,30.71,159.6560576,2.103840195,1003.85426
1249,A-2158,"2,2'-vinylenebis[5-methylbenzoxazole]","InChI=1S/C18H14N2O2/c1-11-3-5-15-13(9-11)19-17(21-15)7-8-18-20-14-10-12(2)4-6-16(14)22-18/h3-10H,1-2H3/b8-7+",VKRZNAWSCAUDRQ-BQYQJAHWSA-N,Cc1ccc2oc(\C=C\c3oc4ccc(C)cc4n3)nc2c1,-6.000481949,0.0,1.0,G1,290.322,4.75624,86.42,22.0,4.0,0.0,4.0,2.0,108.0,4.0,0.0,0.0,4.0,52.06,126.6499463,1.682699196,926.4580098
2058,A-3393,(methylsulfanyl)ethane,"InChI=1S/C3H8S/c1-3-4-2/h3H2,1-2H3",WXEHBUMAEPOYKP-UHFFFAOYSA-N,CCSC,-1.056973282,0.0,1.0,G1,76.164,1.3693,24.056,4.0,1.0,0.0,1.0,1.0,26.0,0.0,0.0,0.0,0.0,0.0,31.59224528,1.974744871,5.245112498
3763,B-181,isopropylamine,"InChI=1S/C3H9N/c1-3(2)4/h3H,4H2,1-2H3",JJWLVOIRVHMVIS-UHFFFAOYSA-N,CC(C)N,1.2283,0.0,1.0,G1,59.112,0.3535,19.3234,4.0,1.0,1.0,1.0,0.0,26.0,0.0,0.0,0.0,0.0,26.02,26.80902595,2.323790008,8.0
9002,F-139,hydroxy-[4-[hydroxy(oxo)azaniumyl]oxypentan-2-yloxy]-oxoazanium,"InChI=1S/C5H12N2O6/c1-4(12-6(8)9)3-5(2)13-7(10)11/h4-5H,3H2,1-2H3,(H,8,9)(H,10,11)/q+2",YMLQURXMZDMOFD-UHFFFAOYSA-N,CC(CC(C)O[N+](=O)O)O[N+](=O)O,-2.22,0.0,1.0,G1,196.159,0.3529,36.5388,13.0,4.0,2.0,8.0,6.0,76.0,0.0,0.0,0.0,0.0,99.08,73.64013839,3.703430004,175.4636326
8428,C-2503,"amidotrizoic  acid;  diatrizoic acid;  3,5-diacetamido-2,4,6-triiodobenzoic acid","InChI=1S/C11H9I3N2O4/c1-3(17)15-9-6(12)5(11(19)20)7(13)10(8(9)14)16-4(2)18/h1-2H3,(H,15,17)(H,16,18)(H,19,20)",YVPYQUNUQOZFHG-UHFFFAOYSA-N,CC(=O)NC1=C(I)C(=C(I)C(=C1I)C(O)=O)NC(C)=O,-2.01,0.0,1.0,G1,613.915,3.1154,100.1597,20.0,3.0,3.0,9.0,3.0,108.0,1.0,0.0,0.0,1.0,95.5,155.4201525,3.676002394,573.1711798
2185,A-3612,methyl 2-chloroacetate,"InChI=1S/C3H5ClO2/c1-6-3(5)2-4/h2H2,1H3",QABLOFMHHSOFRJ-UHFFFAOYSA-N,COC(=O)CCl,-0.372767961,0.0,1.0,G1,108.524,0.3982,22.736,6.0,2.0,0.0,3.0,1.0,36.0,0.0,0.0,0.0,0.0,26.3,41.04746881,2.988160882,46.7548875
2462,A-4119,ethenyl acetate,"InChI=1S/C4H6O2/c1-3-6-4(2)5/h3H,1H2,2H3",XTXRWKRVRITETP-UHFFFAOYSA-N,CC(=O)OC=C,-0.633922712,0.0,1.0,G1,86.09,0.693,21.963,6.0,2.0,0.0,2.0,1.0,34.0,0.0,0.0,0.0,0.0,26.3,36.41954167,3.046489081,65.9483369
228,A-384,(methylsulfanyl)methane,InChI=1S/C2H6S/c1-3-2/h1-2H3,QMMFVYPAHWMCMS-UHFFFAOYSA-N,CSC,-0.931218902,0.225565451,4.0,G5,62.137,0.9792,19.439,3.0,1.0,0.0,1.0,0.0,20.0,0.0,0.0,0.0,0.0,0.0,25.22730317,1.632993162,2.754887502
5188,B-2020,chlorophacinone,"InChI=1S/C23H15ClO3/c24-16-12-10-15(11-13-16)19(14-6-2-1-3-7-14)23(27)20-21(25)17-8-4-5-9-18(17)22(20)26/h1-13,19-20H",UDHXJZHVNHGCEC-UHFFFAOYSA-N,Clc1ccc(cc1)C(C(=O)C2C(=O)c3ccccc3C2=O)c4ccccc4,-3.5738,0.0,1.0,G1,374.823,4.7364,103.337,27.0,3.0,0.0,4.0,4.0,132.0,3.0,0.0,1.0,4.0,51.21,161.1523035,1.794523805,1003.733318
1511,A-2578,hexadecyl(trimethoxy)silane,"InChI=1S/C19H42O3Si/c1-5-6-7-8-9-10-11-12-13-14-15-16-17-18-19-23(20-2,21-3)22-4/h5-19H2,1-4H3",RSKGMYDENCAJEN-UHFFFAOYSA-N,CCCCCCCCCCCCCCCC[Si](OC)(OC)OC,-5.539863641,0.0,1.0,G1,346.628,6.3458,101.9,23.0,3.0,0.0,4.0,18.0,140.0,0.0,0.0,0.0,0.0,27.69,146.3998176,3.245766365,224.3899523
6433,B-3417,"butanoic acid, 2-(formylamino)-","InChI=1S/C5H9NO3/c1-2-4(5(8)9)6-3-7/h3-4H,2H2,1H3,(H,6,7)(H,8,9)",QAISXTKWTBOYAA-UHFFFAOYSA-N,CCC(NC=O)C(O)=O,-0.5918,0.0,1.0,G1,131.131,-0.4044,30.9145,9.0,2.0,2.0,4.0,4.0,52.0,0.0,0.0,0.0,0.0,66.4,52.86615962,3.668569163,112.7707349
2125,A-3505,triethyl phosphate,"InChI=1S/C6H15O4P/c1-4-8-11(7,9-5-2)10-6-3/h4-6H2,1-3H3",DQWPFSLDHJDLRL-UHFFFAOYSA-N,CCO[P](=O)(OCC)OCC,0.438526523,0.0,1.0,G1,182.156,2.204,42.4845,11.0,4.0,0.0,5.0,6.0,68.0,0.0,0.0,0.0,0.0,44.76,67.45420796,3.90847195,112.7695353
5775,B-2681,"pentanoic acid, 4-oxo-3-(phenylmethylene)-","InChI=1S/C12H12O3/c1-9(13)11(8-12(14)15)7-10-5-3-2-4-6-10/h2-7H,8H2,1H3,(H,14,15)",BNQYXFAVUMPZFG-UHFFFAOYSA-N,CC(=O)C(CC(O)=O)=Cc1ccccc1,-1.6111,0.0,1.0,G1,204.225,2.1337,57.3528,15.0,2.0,1.0,3.0,4.0,78.0,1.0,0.0,0.0,1.0,54.37,88.04873073,2.940458649,390.5880757
161,A-270,2-hydroxy-1-(4-{[4-(2-hydroxy-2-methylpropanoyl)phenyl]methyl}phenyl)-2-methylpropan-1-one,"InChI=1S/C21H24O4/c1-20(2,24)18(22)16-9-5-14(6-10-16)13-15-7-11-17(12-8-15)19(23)21(3,4)25/h5-12,24-25H,13H2,1-4H3",PCKZAVNWRLEHIP-UHFFFAOYSA-N,CC(C)(O)C(=O)c1ccc(Cc2ccc(cc2)C(=O)C(C)(C)O)cc1,-4.536378597,0.0,1.0,G1,340.419,3.1846,96.9466,25.0,4.0,2.0,4.0,6.0,132.0,2.0,0.0,0.0,2.0,74.6,147.6844881,2.102909304,690.0287279
9349,F-686,4-(4-methoxyphenyl)sulfonylfuran-2-sulfonamide,"InChI=1S/C11H11NO6S2/c1-17-8-2-4-9(5-3-8)19(13,14)10-6-11(18-7-10)20(12,15)16/h2-7H,1H3,(H2,12,15,16)",VXLVYFXPZGPXCT-UHFFFAOYSA-N,COC1=CC=C(S(=O)(=O)C2=COC(S(N)(=O)=O)=C2)C=C1,-3.02,0.0,1.0,G1,317.344,0.7684,68.527,20.0,6.0,1.0,9.0,4.0,108.0,2.0,0.0,0.0,2.0,116.67,115.4873789,2.464401704,818.0532334
349,A-588,toluene,"InChI=1S/C7H8/c1-7-5-3-2-4-6-7/h2-6H,1H3",YXFVVABEGXRONW-UHFFFAOYSA-N,Cc1ccccc1,-2.206298299,0.023134699,3.0,G5,92.141,1.99502,31.179,7.0,0.0,0.0,0.0,0.0,36.0,1.0,0.0,0.0,1.0,0.0,43.79634523,3.02146531,129.9656602
2683,A-4500,"2,2'-sulfanediyldiethanol","InChI=1S/C4H10O2S/c5-1-3-7-4-2-6/h5-6H,1-4H2",YODZTKMDCQEPHD-UHFFFAOYSA-N,OCCSCCO,0.91296789,0.0,1.0,G1,122.189,-0.2958,31.4966,7.0,3.0,2.0,3.0,4.0,44.0,0.0,0.0,0.0,0.0,40.46,47.5456549,2.447472888,28.8707654