,ID,Name,InChI,InChIKey,SMILES,Solubility,SD,Ocurrences,Group,MolWt,MolLogP,MolMR,HeavyAtomCount,NumHAcceptors,NumHDonors,NumHeteroatoms,NumRotatableBonds,NumValenceElectrons,NumAromaticRings,NumSaturatedRings,NumAliphaticRings,RingCount,TPSA,LabuteASA,BalabanJ,BertzCT
2543,A-4254,3-(2-chlorophenyl)-3-oxopropanenitrile,"InChI=1S/C9H6ClNO/c10-8-4-2-1-3-7(8)9(12)5-6-11/h1-4H,5H2",SBSWHTFHLWSSQS-UHFFFAOYSA-N,Clc1ccccc1C(=O)CC#N,-2.175139595,0.0,1.0,G1,179.606,2.43638,46.0125,12.0,2.0,0.0,3.0,2.0,60.0,1.0,0.0,0.0,1.0,40.86,75.38359747,2.966312248,340.6269264
1625,A-2715,"N,N'-bis(2,6-diisopropylphenyl)carbodiimide","InChI=1S/C25H34N2/c1-16(2)20-11-9-12-21(17(3)4)24(20)26-15-27-25-22(18(5)6)13-10-14-23(25)19(7)8/h9-14,16-19H,1-8H3",XLDBGFGREOMWSL-UHFFFAOYSA-N,CC(C)c1cccc(C(C)C)c1N=C=Nc2c(cccc2C(C)C)C(C)C,-6.860411082,0.0,1.0,G1,362.561,8.3173,118.423,27.0,2.0,0.0,2.0,6.0,144.0,2.0,0.0,0.0,2.0,24.72,165.0233898,2.617446895,715.3975277
6614,B-3652,p-difluorobenzene,InChI=1S/C6H4F2/c7-5-1-2-6(8)4-3-5/h1-4H,QUGUFLJIAFISSW-UHFFFAOYSA-N,Fc1ccc(F)cc1,-1.9709,0.0,1.0,G1,114.094,1.9648,26.358,8.0,0.0,0.0,2.0,0.0,42.0,1.0,0.0,0.0,1.0,0.0,45.76247393,3.032455532,145.3883389
1214,A-2096,"N-(1,4-dimethylpentyl)-N'-phenylbenzene-1,4-diamine","InChI=1S/C19H26N2/c1-15(2)9-10-16(3)20-18-11-13-19(14-12-18)21-17-7-5-4-6-8-17/h4-8,11-16,20-21H,9-10H2,1-3H3",UHJVLUYSDYOULM-UHFFFAOYSA-N,CC(C)CCC(C)Nc1ccc(Nc2ccccc2)cc1,-5.624837561,0.0,1.0,G1,282.431,5.6668,93.3234,21.0,2.0,2.0,2.0,7.0,112.0,2.0,0.0,0.0,2.0,24.06,128.1428165,1.868168331,517.0224341
9083,F-272,2-chloro-1-(4-hydroxy-2-methyl-5-propan-2-ylphenyl)ethanone,"InChI=1S/C12H15ClO2/c1-7(2)9-5-10(12(15)6-13)8(3)4-11(9)14/h4-5,7,14H,6H2,1-3H3",KJLQNABOFYSCRN-UHFFFAOYSA-N,CC1=C(C(=O)CCl)C=C(C(C)C)C(O)=C1,-2.58,0.0,1.0,G1,226.703,3.24552,61.9833,15.0,2.0,1.0,3.0,3.0,82.0,1.0,0.0,0.0,1.0,37.3,94.88007788,3.293116523,383.4536636
1054,A-1815,1-(chloromethyl)-2-methylbenzene,"InChI=1S/C8H9Cl/c1-7-4-2-3-5-8(7)6-9/h2-5H,6H2,1H3",VQRBXYBBGHOGFT-UHFFFAOYSA-N,Cc1ccccc1CCl,-3.081326924,0.0,1.0,G1,140.613,2.73382,40.736,9.0,0.0,0.0,1.0,1.0,48.0,1.0,0.0,0.0,1.0,0.0,60.46455358,3.006524007,193.514053
5510,B-2382,bromofenoxim,"InChI=1S/C13H7Br2N3O6/c14-9-3-7(4-10(15)13(9)19)6-16-24-12-2-1-8(17(20)21)5-11(12)18(22)23/h1-6,16H",VTQWKUZUPOTXEH-UHFFFAOYSA-N,[O-][N+](=O)c1ccc(ONC=C2C=C(Br)C(=O)C(=C2)Br)c(c1)[N+]([O-])=O,-6.6637,0.0,1.0,G1,461.022,3.4106,90.6245,24.0,7.0,1.0,11.0,5.0,124.0,1.0,0.0,1.0,2.0,124.61,150.7313723,2.180088894,806.9959792
3510,A-5854,Solvent orange 60,InChI=1S/C18H10N2O/c21-18-13-8-2-1-7-12(13)17-19-14-9-3-5-11-6-4-10-15(16(11)14)20(17)18/h1-10H,XFYQEBBUVNLYBR-UHFFFAOYSA-N,O=C1N2c3cccc4cccc(N=C2c5ccccc15)c34,-7.255740326,0.0,1.0,G1,270.291,3.8584,82.4035,21.0,3.0,0.0,3.0,0.0,98.0,4.0,0.0,1.0,5.0,34.89,120.0112393,2.06595564,1054.141217
4550,B-1280,"acetamide, 2,2,2-tribromo-","InChI=1S/C2H2Br3NO/c3-2(4,5)1(6)7/h(H2,6,7)",ORCCSQMJUGMAQU-UHFFFAOYSA-N,NC(=O)C(Br)(Br)Br,-1.2668,0.0,1.0,G1,295.756,1.3102,38.7064,7.0,1.0,1.0,5.0,0.0,42.0,0.0,0.0,0.0,0.0,43.09,66.20824876,3.791118417,85.42592197
7238,C-145,benzyl  carbamate,"InChI=1S/C8H9NO2/c9-8(10)11-6-7-4-2-1-3-5-7/h1-5H,6H2,(H2,9,10)",PUJDIJCNWFYVJX-UHFFFAOYSA-N,NC(=O)OCC1=CC=CC=C1,-0.35,0.0,1.0,G1,151.165,1.2819,40.8144,11.0,2.0,1.0,3.0,2.0,58.0,1.0,0.0,0.0,1.0,52.32,64.77624537,2.453018744,233.1071909
6801,B-4042,1-nitrobutane,"InChI=1S/C4H9NO2/c1-2-3-4-5(6)7/h2-4H2,1H3",NALZTFARIYUCBY-UHFFFAOYSA-N,CCCC[N+]([O-])=O,-1.3506,0.0,1.0,G1,103.121,1.0632,26.7694,7.0,2.0,0.0,3.0,3.0,42.0,0.0,0.0,0.0,0.0,43.14,42.48705309,2.821938937,62.71013448
4658,B-1410,"ethane, 1-chloro-2-methoxy-","InChI=1S/C3H7ClO/c1-5-3-2-4/h2-3H2,1H3",XTIGGAHUZJWQMD-UHFFFAOYSA-N,COCCCl,-0.0725,0.0,1.0,G1,94.541,0.8716,22.596,5.0,1.0,0.0,2.0,2.0,32.0,0.0,0.0,0.0,0.0,9.23,36.88594671,2.190609687,14.36452798
7839,C-1604,"1-cyclohexene-1,4-dicarboxylic  acid","InChI=1S/C8H10O4/c9-7(10)5-1-2-6(4-3-5)8(11)12/h1,6H,2-4H2,(H,9,10)(H,11,12)",KAAQPMPUQHKLLE-UHFFFAOYSA-N,OC(=O)C1CCC(=CC1)C(O)=O,-2.93,0.0,1.0,G1,170.164,0.8821,40.6956,12.0,2.0,2.0,4.0,2.0,66.0,0.0,0.0,1.0,1.0,74.6,69.50992335,2.58716045,241.4424154
5589,B-2476,"phenol, 2-iodo-4-methyl-","InChI=1S/C7H7IO/c1-5-2-3-7(9)6(8)4-5/h2-4,9H,1H3",JITSLEIKSRKKCZ-UHFFFAOYSA-N,Cc1ccc(O)c(I)c1,-2.4662,0.0,1.0,G1,234.036,2.30522,45.5608,9.0,1.0,1.0,2.0,0.0,48.0,1.0,0.0,0.0,1.0,20.23,67.85241711,3.17167803,220.1561776
8643,D-1795,"benzene, 1,2-diiodo-",InChI=1S/C6H4I2/c7-5-3-1-2-4-6(5)8/h1-4H,BBOLNFYSRZVALD-UHFFFAOYSA-N,Ic1ccccc1I,-4.217,0.01145,2.0,G3,329.906,2.8958,51.876,8.0,0.0,0.0,2.0,0.0,42.0,1.0,0.0,0.0,1.0,0.0,75.95507936,3.134861511,162.6383389
7185,B-4634,"2,5-pyridinedicarboxylic acid","InChI=1S/C7H5NO4/c9-6(10)4-1-2-5(7(11)12)8-3-4/h1-3H,(H,9,10)(H,11,12)",LVPMIMZXDYBCDF-UHFFFAOYSA-N,OC(=O)c1ccc(nc1)C(O)=O,-2.1296,0.0,1.0,G1,167.12,0.478,38.1556,12.0,3.0,2.0,5.0,2.0,62.0,1.0,0.0,0.0,1.0,87.49,67.29244703,3.006149834,283.6831902
2716,A-4535,methanesulfonic acid,"InChI=1S/CH4O3S/c1-5(2,3)4/h1H3,(H,2,3,4)",AFVFQIVMOAPDHO-UHFFFAOYSA-N,C[S](O)(=O)=O,1.017244979,0.0,1.0,G1,96.107,-0.496,17.4726,5.0,2.0,1.0,4.0,0.0,32.0,0.0,0.0,0.0,0.0,54.37,30.36788704,4.062942299,90.06147084
2083,A-3438,"tris(2-hydroxyethyl)-1,3,5-triazinane-2,4,6-trione","InChI=1S/C9H15N3O6/c13-4-1-10-7(16)11(2-5-14)9(18)12(3-6-15)8(10)17/h13-15H,1-6H2",BPXVHIRIPLPOPT-UHFFFAOYSA-N,OCCN1C(=O)N(CCO)C(=O)N(CCO)C1=O,0.340366328,0.151650906,2.0,G3,261.234,-3.8514,60.4794,18.0,9.0,3.0,9.0,6.0,102.0,1.0,0.0,0.0,1.0,126.69,100.7771818,3.591130574,457.8646125
1119,A-1921,sodium dodecylbenzenesulfonate,"InChI=1S/C18H30O3S.Na/c1-2-3-4-5-6-7-8-9-10-14-17-21-22(19,20)18-15-12-11-13-16-18;/h11-13,15-16H,2-10,14,17H2,1H3;",GVGUFUZHNYFZLC-UHFFFAOYSA-N,[Na].CCCCCCCCCCCCO[S](=O)(=O)c1ccccc1,-3.543437239,0.451544994,2.0,G3,349.492,4.932,97.1778,23.0,3.0,0.0,5.0,13.0,127.0,1.0,0.0,0.0,1.0,43.37,164.1720556,4.84e-06,474.299882
2406,A-4025,ethyl 2-cyclohexylpropanoate,"InChI=1S/C11H20O2/c1-3-13-11(12)9(2)10-7-5-4-6-8-10/h9-10H,3-8H2,1-2H3",PZUDDXJZNSJESK-UHFFFAOYSA-N,CCOC(=O)C(C)C1CCCCC1,-3.327456749,0.0,1.0,G1,184.279,2.7659,52.372,13.0,2.0,0.0,2.0,3.0,76.0,0.0,1.0,1.0,1.0,26.3,80.65790835,2.352919439,159.473214
1397,A-2420,"1,4-diethyl 2-{[4-({4-[(1,4-diethoxy-1,4-dioxobutan-2-yl)amino]-3-methylcyclohexyl}methyl)-2-methylcyclohexyl]amino}butanedioate","InChI=1S/C31H54N2O8/c1-7-38-28(34)18-26(30(36)40-9-3)32-24-13-11-22(15-20(24)5)17-23-12-14-25(21(6)16-23)33-27(31(37)41-10-4)19-29(35)39-8-2/h20-27,32-33H,7-19H2,1-6H3",YHVVJCQIMRGPPE-UHFFFAOYSA-N,CCOC(=O)CC(NC1CCC(CC2CCC(NC(CC(=O)OCC)C(=O)OCC)C(C)C2)CC1C)C(=O)OCC,-5.06653389,0.0,1.0,G1,582.779,3.9351,154.8164,41.0,10.0,2.0,10.0,16.0,236.0,0.0,2.0,2.0,2.0,129.26,245.8758458,1.871876332,770.9354981
7116,B-4516,3-nitroaniline,"InChI=1S/C6H6N2O2/c7-5-2-1-3-6(4-5)8(9)10/h1-4H,7H2",XJCVRTZCHMZPBD-UHFFFAOYSA-N,Nc1cccc(c1)[N+]([O-])=O,-2.0611,0.06445,2.0,G3,138.126,1.177,37.5088,10.0,3.0,1.0,4.0,1.0,52.0,1.0,0.0,0.0,1.0,69.16,57.42426954,3.069899266,259.6796584
6436,B-3420,"benzenesulfonamide, 4-[(3-hydroxypropyl)thio]-","InChI=1S/C9H13NO3S2/c10-15(12,13)9-4-2-8(3-5-9)14-7-1-6-11/h2-5,11H,1,6-7H2,(H2,10,12,13)",BHBPVVOUUXIZBX-UHFFFAOYSA-N,N[S](=O)(=O)c1ccc(SCCCO)cc1,-2.2472,0.0,1.0,G1,247.341,0.8085,60.242,15.0,4.0,2.0,6.0,5.0,84.0,1.0,0.0,0.0,1.0,80.39,93.54423983,2.648689461,399.8705628
8984,F-107,"3-Amino-2-phenyl-1H-1,2,4-triazol-5-one","InChI=1S/C8H8N4O/c9-7-10-8(13)11-12(7)6-4-2-1-3-5-6/h1-5H,(H3,9,10,11,13)",ZJPDGJGMGLILIS-UHFFFAOYSA-N,NC1=NC(=O)NN1C1=CC=CC=C1,-1.7,0.0,1.0,G1,176.179,0.1428,48.5971,13.0,4.0,2.0,5.0,1.0,66.0,2.0,0.0,0.0,2.0,76.7,73.81679156,2.58963477,456.4963078
5874,B-2797,"butanoic acid, 4-(benzoylamino)-","InChI=1S/C11H13NO3/c13-10(14)7-4-8-12-11(15)9-5-2-1-3-6-9/h1-3,5-6H,4,7-8H2,(H,12,15)(H,13,14)",BOZHPKGNNJPZKV-UHFFFAOYSA-N,OC(=O)CCCNC(=O)c1ccccc1,-1.2025,0.0,1.0,G1,207.229,1.2812,55.645,15.0,2.0,2.0,4.0,5.0,80.0,1.0,0.0,0.0,1.0,66.4,87.92325383,2.282270099,334.9460875
791,A-1376,"N-ethyl-N'-isopropyl-6-(methylsulfanyl)-1,3,5-triazine-2,4-diamine","InChI=1S/C9H17N5S/c1-5-10-7-12-8(11-6(2)3)14-9(13-7)15-4/h6H,5H2,1-4H3,(H2,10,11,12,13,14)",RQVYBGPQFYCBGX-UHFFFAOYSA-N,CCNc1nc(NC(C)C)nc(SC)n1,-3.047039957,0.016534655,3.0,G5,227.337,1.8456,64.5304,15.0,6.0,2.0,6.0,5.0,84.0,1.0,0.0,0.0,1.0,62.73,94.50283414,2.891747032,315.3710554
1924,A-3172,sodium 4-methylbenzene-1-sulfonate,"InChI=1S/C7H8O3S.Na/c1-6-2-4-7(5-3-6)11(8,9)10;/h2-5H,1H3,(H,8,9,10);/q;+1/p-1",KVCGISUBCHHTDD-UHFFFAOYSA-M,[Na+].Cc1ccc(cc1)[S]([O-])(=O)=O,0.624533151,0.0,1.0,G1,194.187,-2.09688,39.1422,12.0,3.0,0.0,5.0,1.0,60.0,1.0,0.0,0.0,1.0,57.2,93.83838087,1.21e-06,341.4191672
5922,B-2850,"2-propenoic acid, 3-(2-ethoxyphenyl)-, (z)-","InChI=1S/C11H12O3/c1-2-14-10-6-4-3-5-9(10)7-8-11(12)13/h3-8H,2H2,1H3,(H,12,13)/b8-7-",UXTDCJJEJZCEBF-FPLPWBNLSA-N,CCOc1ccccc1\C=C/C(O)=O,-2.5234,0.0,1.0,G1,192.214,2.1831,54.2808,14.0,2.0,1.0,3.0,4.0,74.0,1.0,0.0,0.0,1.0,46.53,82.63581174,2.888868796,342.14081
6743,B-3953,cycloheptatriene,"InChI=1S/C7H8/c1-2-4-6-7-5-3-1/h1-6H,7H2",CHVJITGCYZJHLR-UHFFFAOYSA-N,C1C=CC=CC=C1,-2.1721,0.01105,2.0,G3,92.141,2.0587,32.037,7.0,0.0,0.0,0.0,0.0,36.0,0.0,0.0,1.0,1.0,0.0,43.85426346,2.600949139,102.0
5462,B-2327,crotoxyphos,"InChI=1S/C14H19O6P/c1-11(20-21(16,17-3)18-4)10-14(15)19-12(2)13-8-6-5-7-9-13/h5-10,12H,1-4H3/b11-10+",XXXSILNSXNPGKG-ZHACJKMWSA-N,CO[P](=O)(OC)OC(/C)=C/C(=O)OC(C)c1ccccc1,-2.4973,0.0,1.0,G1,314.274,3.6121,77.4155,21.0,6.0,0.0,7.0,7.0,116.0,1.0,0.0,0.0,1.0,71.06,123.8266507,2.636640599,531.6550311
5645,B-2536,"2-cyclopenta[c]pyran-4-carboxylic acid, 1-(á-d-g","InChI=1S/C17H26O10/c1-6-9(19)3-7-8(15(23)24-2)5-25-16(11(6)7)27-17-14(22)13(21)12(20)10(4-18)26-17/h5-7,9-14,16-22H,3-4H2,1-2H3/t6-,7+,9-,10+,11+,12+,13-,14+,16-,17-/m0/s1",AMBQHHVBBHTQBF-UOUCRYGSSA-N,COC(=O)C1=CO[C@@H](O[C@@H]2O[C@H](CO)[C@@H](O)[C@H](O)[C@H]2O)[C@@H]3[C@@H](C)[C@@H](O)C[C@H]13,-0.5911,0.0,1.0,G1,390.385,-2.1508,86.592,27.0,10.0,5.0,10.0,4.0,154.0,0.0,2.0,3.0,3.0,155.14,155.4581001,1.799069717,578.0614323
8128,C-2069,n-(3-chlorophenyl)anthranilic  acid;  3'-chlorofenamic acid,"InChI=1S/C13H10ClNO2/c14-9-4-3-5-10(8-9)15-12-7-2-1-6-11(12)13(16)17/h1-8,15H,(H,16,17)",OVMWPVYEBVFZHM-UHFFFAOYSA-N,OC(=O)C1=CC=CC=C1NC2=CC(=CC=C2)Cl,-5.3,0.0,1.0,G1,247.681,3.7818,68.136,17.0,2.0,2.0,4.0,3.0,86.0,2.0,0.0,0.0,2.0,49.33,103.6623237,2.329483875,554.6206554
5858,B-2780,"1,2,3-benzenetricarboxylic acid, 5-bromo-","InChI=1S/C9H5BrO6/c10-3-1-4(7(11)12)6(9(15)16)5(2-3)8(13)14/h1-2H,(H,11,12)(H,13,14)(H,15,16)",JSTKTNCNRDMHRQ-UHFFFAOYSA-N,OC(=O)c1cc(Br)cc(C(O)=O)c1C(O)=O,-1.4481,0.0,1.0,G1,289.037,1.5437,55.0199,16.0,3.0,3.0,7.0,3.0,84.0,1.0,0.0,0.0,1.0,111.9,97.26104463,3.671509592,457.767732
6619,B-3661,"2,3,4,5-tetrachloronitrobenzene",InChI=1S/C6HCl4NO2/c7-2-1-3(11(12)13)5(9)6(10)4(2)8/h1H,MTBYTWZDRVOMBR-UHFFFAOYSA-N,[O-][N+](=O)c1cc(Cl)c(Cl)c(Cl)c1Cl,-4.5531,0.0,1.0,G1,260.891,4.2084,53.1364,13.0,2.0,0.0,7.0,1.0,70.0,1.0,0.0,0.0,1.0,43.14,93.29744375,3.497381361,379.387268
8346,C-2384,sulfaproxyline,"InChI=1S/C16H18N2O4S/c1-11(2)22-14-7-3-12(4-8-14)16(19)18-23(20,21)15-9-5-13(17)6-10-15/h3-11H,17H2,1-2H3,(H,18,19)",FBFBRAFXKGRRHI-UHFFFAOYSA-N,CC(C)OC1=CC=C(C=C1)C(=O)N[S](=O)(=O)C2=CC=C(N)C=C2,-4.3,0.0,1.0,G1,334.397,2.1747,87.7124,23.0,5.0,2.0,7.0,5.0,122.0,2.0,0.0,0.0,2.0,98.49,134.8738619,2.128087439,781.8348778
8654,D-1894,2-isopropyl naphthalene,"InChI=1S/C13H14/c1-10(2)12-8-7-11-5-3-4-6-13(11)9-12/h3-10H,1-2H3",TVYVQNHYIHAJTD-UHFFFAOYSA-N,CC(C)c1ccc2ccccc2c1,-5.298,0.0,1.0,G1,170.255,3.9632,58.037,13.0,0.0,0.0,0.0,1.0,66.0,2.0,0.0,0.0,2.0,0.0,79.20789399,2.61987387,413.0627537
7760,C-1432,naproxen ester ve;  naproxen [n-(2-hydroxyethyl)-n-methyl-carbamoyl]methyl ester,"InChI=1S/C19H23NO5/c1-13(19(23)25-12-18(22)20(2)8-9-21)14-4-5-16-11-17(24-3)7-6-15(16)10-14/h4-7,10-11,13,21H,8-9,12H2,1-3H3",UKUHRIHGVXNNCI-UHFFFAOYSA-N,COC1=CC=C2C=C(C=CC2=C1)C(C)C(=O)OCC(=O)N(C)CCO,-3.39,0.0,1.0,G1,345.395,1.9458,94.5968,25.0,5.0,1.0,6.0,7.0,134.0,2.0,0.0,0.0,2.0,76.07,146.5017488,2.035512278,758.5629044
3241,A-5346,caesium(1+) ion chloride,InChI=1S/ClH.Cs/h1H;/q;+1/p-1,AIYUHDOJVYHVIT-UHFFFAOYSA-M,[Cl-].[Cs+],0.773766242,0.0,1.0,G1,168.358,-5.992,0.0,2.0,0.0,0.0,2.0,0.0,8.0,0.0,0.0,0.0,0.0,0.0,78.82636016,0.0,2.0
9015,F-159,2-acetamido-3-methylpentanoic acid,"InChI=1S/C8H15NO3/c1-4-5(2)7(8(11)12)9-6(3)10/h5,7H,4H2,1-3H3,(H,9,10)(H,11,12)",JDTWZSUNGHMMJM-UHFFFAOYSA-N,CCC(C)C(NC(C)=O)C(=O)O,-0.69,0.246944603,4.0,G5,173.212,0.6218,44.6955,12.0,2.0,2.0,4.0,4.0,70.0,0.0,0.0,0.0,0.0,66.4,71.96098596,4.224172783,179.1417863
8198,C-2172,"2,3',4',5-tetrachlorodiphenyl  ether",InChI=1S/C12H6Cl4O/c13-7-1-3-10(15)12(5-7)17-8-2-4-9(14)11(16)6-8/h1-6H,MFTPXFIGIJCNJM-UHFFFAOYSA-N,ClC1=CC=C(Cl)C(=C1)OC2=CC=C(Cl)C(=C2)Cl,-7.07,0.0,1.0,G1,307.991,6.0925,72.998,17.0,1.0,0.0,5.0,2.0,88.0,2.0,0.0,0.0,2.0,9.23,118.8151075,2.30814695,554.1970467
1527,A-2596,"2,5,7,8-tetramethyl-2-(4,8,12-trimethyltridecyl)-3,4-dihydro-2H-1-benzopyran-6-yl acetate","InChI=1S/C31H52O3/c1-21(2)13-10-14-22(3)15-11-16-23(4)17-12-19-31(9)20-18-28-26(7)29(33-27(8)32)24(5)25(6)30(28)34-31/h21-23H,10-20H2,1-9H3/t22-,23-,31-/m1/s1",ZAKOWWREFLAJOT-CEFNRUSXSA-N,CC(C)CCC[C@@H](C)CCC[C@@H](C)CCC[C@]1(C)CCc2c(C)c(OC(C)=O)c(C)c(C)c2O1,-5.771545225,0.0,1.0,G1,472.754,9.05996,144.035,34.0,3.0,0.0,3.0,13.0,194.0,1.0,0.0,1.0,2.0,35.53,209.9377374,1.821205409,809.6304804
4358,B-1050,methallyl alcohol,"InChI=1S/C4H8O/c1-4(2)3-5/h5H,1,3H2,2H3",BYDRTKVGBRTTIT-UHFFFAOYSA-N,CC(=C)CO,0.4298,0.0,1.0,G1,72.107,0.5548,21.8998,5.0,1.0,1.0,1.0,1.0,30.0,0.0,0.0,0.0,0.0,20.23,31.93870809,2.847378923,38.91260938
3572,A-5995,"4,10-dibromonaphtho[7,8,1,2,3-nopqr]tetraphene-6,12-dione",InChI=1S/C22H8Br2O2/c23-15-7-14-19-17-9(15)3-1-5-11(17)21(25)13-8-16(24)10-4-2-6-12(22(14)26)18(10)20(13)19/h1-8H,HTENFZMEHKCNMD-UHFFFAOYSA-N,Brc1cc2C(=O)c3cccc4c(Br)cc5C(=O)c6cccc1c6c2c5c34,-7.633199042,0.0,1.0,G1,464.112,5.963,114.586,26.0,2.0,0.0,4.0,0.0,122.0,4.0,0.0,2.0,6.0,34.14,163.2103695,2.19258337,1465.129292
9095,F-299,4-Methoxycarbonylbenzoic acid,"InChI=1S/C9H8O4/c1-13-9(12)7-4-2-6(3-5-7)8(10)11/h2-5H,1H3,(H,10,11)",REIDAMBAPLIATC-UHFFFAOYSA-N,COC(=O)C1=CC=C(C(=O)O)C=C1,-2.97,0.0,1.0,G1,180.159,1.1714,44.7408,13.0,3.0,1.0,4.0,2.0,68.0,1.0,0.0,0.0,1.0,63.6,74.75705264,2.934041941,325.9728677
9671,F-1136,N-(6-methoxypyridin-3-yl)cyclopropanecarboxamide,"InChI=1S/C10H12N2O2/c1-14-9-5-4-8(6-11-9)12-10(13)7-2-3-7/h4-7H,2-3H2,1H3,(H,12,13)",JPLCQHHISLYGRA-UHFFFAOYSA-N,COC1=NC=C(NC(=O)C2CC2)C=C1,-2.14,0.0,1.0,G1,192.218,1.4387,52.1427,14.0,3.0,1.0,4.0,3.0,74.0,1.0,1.0,1.0,2.0,51.22,82.29486003,1.980747249,330.4801644
9397,F-742,1-[(4-chlorophenyl)-phenylmethyl]-4-[(3-methylphenyl)methyl]piperazine,"InChI=1S/C25H27ClN2/c1-20-6-5-7-21(18-20)19-27-14-16-28(17-15-27)25(22-8-3-2-4-9-22)23-10-12-24(26)13-11-23/h2-13,18,25H,14-17,19H2,1H3",OCJYIGYOJCODJL-UHFFFAOYSA-N,CC1=CC=CC(CN2CCN(C(C3=CC=CC=C3)C3=CC=C(Cl)C=C3)CC2)=C1,-4.63,0.0,1.0,G1,390.958,5.55562,117.766,28.0,2.0,0.0,3.0,5.0,144.0,3.0,1.0,1.0,4.0,6.48,172.9172887,1.48466459,883.9361146
2680,A-4496,"1,4-dioxane",InChI=1S/C4H8O2/c1-2-6-4-3-5-1/h1-4H2,RYHBNJHYFVUHQT-UHFFFAOYSA-N,C1COCCO1,1.054994515,0.0,1.0,G1,88.106,0.0332,21.638,6.0,2.0,0.0,2.0,0.0,36.0,0.0,1.0,1.0,1.0,18.46,37.05533668,2.0,21.01955001
6968,B-4287,diazinon,"InChI=1S/C12H21N2O3PS/c1-6-15-18(19,16-7-2)17-11-8-10(5)13-12(14-11)9(3)4/h8-9H,6-7H2,1-5H3",FHIVAFMUCKRCQO-UHFFFAOYSA-N,CCO[P](=S)(OCC)Oc1cc(C)nc(n1)C(C)C,-3.8813,0.12065,2.0,G3,304.352,3.58472,79.023,19.0,6.0,0.0,7.0,7.0,108.0,1.0,0.0,0.0,1.0,53.47,119.5107998,2.990376565,458.2877596
8974,F-86,"furo[3,2-g]chromen-7-one",InChI=1S/C11H6O3/c12-11-2-1-7-5-8-3-4-13-9(8)6-10(7)14-11/h1-6H,ZCCUUQDIBDJBTK-UHFFFAOYSA-N,O=C1C=CC2=C(C=C3OC=CC3=C2)O1,-3.74,0.0,1.0,G1,186.166,2.5392,52.256,14.0,3.0,0.0,3.0,0.0,68.0,3.0,0.0,0.0,3.0,43.35,78.55540037,2.564584551,660.6550392
9281,F-610,"(2Z,4Z,2'E,4'E)-4,4'-[(1S,2S)-1,2-Cyclohexanediyldinitrilo]bis(2-penten-2-ol)","InChI=1S/C16H26N2O2/c1-11(9-13(3)19)17-15-7-5-6-8-16(15)18-12(2)10-14(4)20/h9-10,15-18H,5-8H2,1-4H3",QNIPROSCSFQJIO-UHFFFAOYSA-N,CC(=O)C=C(C)NC1CCCCC1NC(C)=CC(C)=O,-2.11,0.0,1.0,G1,278.396,2.4624,81.1914,20.0,4.0,2.0,4.0,6.0,112.0,0.0,1.0,1.0,1.0,58.2,121.2511141,2.6692006,384.1928095
6291,B-3266,"3-pyridinecarboxamide, n-dodecyl-","InChI=1S/C18H30N2O/c1-2-3-4-5-6-7-8-9-10-11-15-20-18(21)17-13-12-14-19-16-17/h12-14,16H,2-11,15H2,1H3,(H,20,21)",XVQJYCJZQVBVTL-UHFFFAOYSA-N,CCCCCCCCCCCCNC(=O)c1cccnc1,-3.2078,0.0,1.0,G1,290.451,4.7323,88.4142,21.0,2.0,1.0,3.0,12.0,118.0,1.0,0.0,0.0,1.0,41.99,129.1066829,1.876283176,364.7408925
3663,B-8,"2,3,6-trichlorobenzoic acid","InChI=1S/C7H3Cl3O2/c8-3-1-2-4(9)6(10)5(3)7(11)12/h1-2H,(H,11,12)",XZIDTOHMJBOSOX-UHFFFAOYSA-N,OC(=O)c1c(Cl)ccc(Cl)c1Cl,-1.4666,0.0183,2.0,G3,225.458,3.345,48.4313,12.0,1.0,1.0,5.0,1.0,64.0,1.0,0.0,0.0,1.0,37.3,83.66189977,3.428930881,335.6685277
6401,B-3383,"butanoic acid, 2,2,4-trichloro-","InChI=1S/C4H5Cl3O2/c5-2-1-4(6,7)3(8)9/h1-2H2,(H,8,9)",UGTZSSVWKVRIAN-UHFFFAOYSA-N,OC(=O)C(Cl)(Cl)CCCl,-0.5831,0.0,1.0,G1,191.441,1.8738,37.4098,9.0,1.0,1.0,5.0,3.0,54.0,0.0,0.0,0.0,0.0,37.3,67.6996319,3.85458062,112.3803753
9918,H-491,"1,2,4-Trichlorodibenzo-p-dioxin  ",InChI=1S/C12H5Cl3O2/c13-6-5-7(14)11-12(10(6)15)17-9-4-2-1-3-8(9)16-11/h1-5H,HRVUKLBFRPWXPJ-UHFFFAOYSA-N,ClC1=CC(Cl)=C2OC3=CC=CC=C3OC2=C1Cl,-7.58,0.031298598,3.0,G5,287.529,5.5448,68.062,17.0,2.0,0.0,5.0,0.0,86.0,2.0,0.0,1.0,3.0,18.46,112.6195553,2.208912848,610.9400034
601,A-1062,thiophene,InChI=1S/C4H4S/c1-2-4-5-3-1/h1-4H,YTPLMLYBLZKORZ-UHFFFAOYSA-N,s1cccc1,-1.445011049,0.057505525,2.0,G3,84.143,1.7481,24.319,5.0,1.0,0.0,1.0,0.0,26.0,1.0,0.0,0.0,1.0,0.0,35.07176639,3.125,60.12481811
2864,A-4790,N-dodecanoyl-N-methylglycine,"InChI=1S/C15H29NO3/c1-3-4-5-6-7-8-9-10-11-12-14(17)16(2)13-15(18)19/h3-13H2,1-2H3,(H,18,19)",BACYUWVYYTXETD-UHFFFAOYSA-N,CCCCCCCCCCCC(=O)N(C)CC(O)=O,-2.734641439,0.0,1.0,G1,271.401,3.4503,77.1168,19.0,2.0,1.0,4.0,12.0,112.0,0.0,0.0,0.0,0.0,57.61,116.7255523,3.337749258,253.7752417
597,A-1056,"N,N-dimethyl[(dimethylcarbamothioyl)sulfanyl]carbothioamide",InChI=1S/C6H12N2S3/c1-7(2)5(9)11-6(10)8(3)4/h1-4H3,REQPQFUJGGOFQL-UHFFFAOYSA-N,CN(C)C(=S)SC(=S)N(C)C,-2.830299065,0.0,1.0,G1,208.377,1.4126,60.161,11.0,3.0,0.0,5.0,0.0,64.0,0.0,0.0,0.0,0.0,6.48,82.92429946,3.862410115,147.2103308
7913,C-1736,3-nitrophenyl  isothiocyanate;  3-isothiocyanatonitrobenzene,InChI=1S/C7H4N2O2S/c10-9(11)7-3-1-2-6(4-7)8-5-12/h1-4H,OEZXLKSZOAWNJU-UHFFFAOYSA-N,[O-][N+](=O)C1=CC=CC(=C1)N=C=S,-3.55,0.0,1.0,G1,180.188,2.3291,47.7824,12.0,4.0,0.0,5.0,2.0,60.0,1.0,0.0,0.0,1.0,55.5,73.70342369,3.113793064,340.928938
810,A-1407,ditolyl ether,"InChI=1S/C14H14O/c1-11-7-3-5-9-13(11)15-14-10-6-4-8-12(14)2/h3-10H,1-2H3",CYXMOAZSOPXQOD-UHFFFAOYSA-N,Cc1ccccc1Oc2ccccc2C,-4.843927714,0.0,1.0,G1,198.265,4.09574,62.432,15.0,1.0,0.0,1.0,2.0,76.0,2.0,0.0,0.0,2.0,9.23,90.33192678,2.30218436,416.9008091
2871,A-4807,N-butylbenzenesulfonamide,"InChI=1S/C10H15NO2S/c1-2-3-9-11-14(12,13)10-7-5-4-6-8-10/h4-8,11H,2-3,9H2,1H3",IPRJXAGUEGOFGG-UHFFFAOYSA-N,CCCCN[S](=O)(=O)c1ccccc1,-2.675782414,0.544510027,2.0,G2,213.302,1.765,56.5385,14.0,2.0,1.0,4.0,5.0,78.0,1.0,0.0,0.0,1.0,46.17,85.20180965,2.671669154,358.9682051
568,A-1009,2-chloro-2-methylbutane,"InChI=1S/C5H11Cl/c1-4-5(2,3)6/h4H2,1-3H3",CRNIHJHMEQZAAS-UHFFFAOYSA-N,CCC(C)(C)Cl,-2.51054501,0.500659021,2.0,G2,106.596,2.4138,30.223,6.0,0.0,0.0,1.0,1.0,38.0,0.0,0.0,0.0,0.0,0.0,44.50228571,3.168489873,33.69332843
29,A-39,dodecyl 2-hydroxypropanoate,"InChI=1S/C15H30O3/c1-3-4-5-6-7-8-9-10-11-12-13-18-15(17)14(2)16/h14,16H,3-13H2,1-2H3",QQQMUBLXDAFBRH-UHFFFAOYSA-N,CCCCCCCCCCCCOC(=O)C(C)O,-4.63414462,0.106537413,2.0,G3,258.402,3.8313,74.4838,18.0,3.0,1.0,3.0,12.0,108.0,0.0,0.0,0.0,0.0,46.53,111.9177417,3.053119778,190.1777353