,ID,Name,InChI,InChIKey,SMILES,Solubility,SD,Ocurrences,Group,MolWt,MolLogP,MolMR,HeavyAtomCount,NumHAcceptors,NumHDonors,NumHeteroatoms,NumRotatableBonds,NumValenceElectrons,NumAromaticRings,NumSaturatedRings,NumAliphaticRings,RingCount,TPSA,LabuteASA,BalabanJ,BertzCT
5412,B-2270,"1,2-dimethylcyclohexane (trans)","InChI=1S/C8H16/c1-7-5-3-4-6-8(7)2/h7-8H,3-6H2,1-2H3/t7-,8-/m0/s1",KVZJLSYJROEPSQ-YUMQZZPRSA-N,C[C@H]1CCCC[C@@H]1C,-4.3341,0.0,1.0,G1,112.216,2.8326,36.796,8.0,0.0,0.0,0.0,0.0,48.0,0.0,1.0,1.0,1.0,0.0,52.28801468,2.279400271,56.4385619
2103,A-3472,ethyl 3-ethoxypropanoate,"InChI=1S/C7H14O3/c1-3-9-6-5-7(8)10-4-2/h3-6H2,1-2H3",BHXIWUJLHYHGSJ-UHFFFAOYSA-N,CCOCCC(=O)OCC,-0.431708518,0.005554259,2.0,G3,146.186,0.9761,37.743,10.0,3.0,0.0,3.0,5.0,60.0,0.0,0.0,0.0,0.0,35.53,61.31751627,3.052375189,90.85200901
6227,B-3195,"2-pyrimidinecarboxamide, 4,6-dimethyl-","InChI=1S/C7H9N3O/c1-4-3-5(2)10-7(9-4)6(8)11/h3H,1-2H3,(H2,8,11)",GQSYNOBFTDVBDM-UHFFFAOYSA-N,Cc1cc(C)nc(n1)C(N)=O,0.1216,0.0,1.0,G1,151.169,0.19234,40.0239,11.0,3.0,1.0,4.0,1.0,58.0,1.0,0.0,0.0,1.0,68.87,64.46693822,3.186012534,275.4872023
6793,B-4030,o-dinitrobenzene,InChI=1S/C6H4N2O4/c9-7(10)5-3-1-2-4-6(5)8(11)12/h1-4H,IZUKQUVSCNEFMJ-UHFFFAOYSA-N,[O-][N+](=O)c1ccccc1[N+]([O-])=O,-3.1017,0.0,1.0,G1,168.108,1.503,39.7508,12.0,4.0,0.0,6.0,2.0,62.0,1.0,0.0,0.0,1.0,86.28,66.73735456,3.267076196,303.0748997
6964,B-4282,benzo(f)quinoline,InChI=1S/C13H9N/c1-2-5-11-10(4-1)7-8-13-12(11)6-3-9-14-13/h1-9H,HCAUQPZEWLULFJ-UHFFFAOYSA-N,c1ccc2c(c1)ccc3ncccc23,-3.3574,0.0087,2.0,G3,179.222,3.388,59.249,14.0,1.0,0.0,1.0,0.0,66.0,3.0,0.0,0.0,3.0,12.89,82.01438016,2.610318687,544.2063512
1866,A-3067,"2-(4-bromo-3-hydroxyquinolin-2-yl)-2,3-dihydro-1H-indene-1,3-dione","InChI=1S/C18H10BrNO3/c19-14-11-7-3-4-8-12(11)20-15(18(14)23)13-16(21)9-5-1-2-6-10(9)17(13)22/h1-8,13,23H",DVBLPJWQXDCAKU-UHFFFAOYSA-N,Oc1c(Br)c2ccccc2nc1C3C(=O)c4ccccc4C3=O,-4.867097266,0.0,1.0,G1,368.186,3.8657,88.9518,23.0,4.0,1.0,5.0,1.0,112.0,3.0,0.0,1.0,4.0,67.26,139.4636306,1.960591538,961.723299
1174,A-2019,"4,4'-cyclohexane-1,1-diylbis(2-methylphenol)","InChI=1S/C20H24O2/c1-14-12-16(6-8-18(14)21)20(10-4-3-5-11-20)17-7-9-19(22)15(2)13-17/h6-9,12-13,21-22H,3-5,10-11H2,1-2H3",SVOBELCYOCEECO-UHFFFAOYSA-N,Cc1cc(ccc1O)C2(CCCCC2)c3ccc(O)c(C)c3,-5.371522306,0.0,1.0,G1,296.41,4.96484,89.5526,22.0,2.0,2.0,2.0,2.0,116.0,2.0,1.0,1.0,3.0,40.46,131.9906706,2.148016562,628.6017541
9481,F-858,"7-chloro-3'-ethoxy-4,6-dimethoxy-5'-methylspiro[1-benzofuran-2,4'-cyclohex-2-ene]-1',3-dione","InChI=1S/C18H19ClO6/c1-5-24-13-7-10(20)6-9(2)18(13)17(21)14-11(22-3)8-12(23-4)15(19)16(14)25-18/h7-9H,5-6H2,1-4H3",VHXBNOUUDLLFER-UHFFFAOYSA-N,CCOC1=CC(=O)CC(C)C12OC1=C(C2=O)C(OC)=CC(OC)=C1Cl,-5.0,0.0,1.0,G1,366.797,3.2004,90.7425,25.0,6.0,0.0,7.0,4.0,134.0,1.0,0.0,2.0,3.0,71.06,150.1899345,2.236202265,784.2612361
5235,B-2072,"benzenemethanol, 2-hydroxy-5-methyl-","InChI=1S/C8H10O2/c1-6-2-3-8(10)7(4-6)5-9/h2-4,9-10H,5H2,1H3",ZUVDVLYXIZFDRM-UHFFFAOYSA-N,Cc1ccc(O)c(CO)c1,-0.3143,0.0,1.0,G1,138.166,1.19292,38.7666,10.0,2.0,2.0,2.0,1.0,54.0,1.0,0.0,0.0,1.0,40.46,59.74975485,3.090683646,230.6992424
6766,B-3986,hexachlorobutadiene,InChI=1S/C4Cl6/c5-1(3(7)8)2(6)4(9)10,RWNKSTSCBHKHTB-UHFFFAOYSA-N,ClC(Cl)=C(Cl)C(Cl)=C(Cl)Cl,-4.9111,0.0,1.0,G1,260.762,4.7574,49.17,10.0,0.0,0.0,6.0,1.0,58.0,0.0,0.0,0.0,0.0,0.0,88.27446867,4.708295227,159.9244972
4165,B-810,"butanedioic acid, dibutyl ester","InChI=1S/C12H22O4/c1-3-5-9-15-11(13)7-8-12(14)16-10-6-4-2/h3-10H2,1-2H3",YUXIBTJKHLUKBD-UHFFFAOYSA-N,CCCCOC(=O)CCC(=O)OCCCC,-3.0006,0.0,1.0,G1,230.304,2.4532,60.968,16.0,4.0,0.0,4.0,9.0,94.0,0.0,0.0,0.0,0.0,52.6,97.30374895,3.399824219,179.1954412
3079,A-5137,zinc dibenzoate,"InChI=1S/2C7H6O2.Zn/c2*8-7(9)6-4-2-1-3-5-6;/h2*1-5H,(H,8,9);/q;;+2/p-2",JDLYKQWJXAQNNS-UHFFFAOYSA-L,[Zn++].[O-]C(=O)c1ccccc1.[O-]C(=O)c2ccccc2,-1.816841725,0.0,1.0,G1,307.62,0.0977,61.545,19.0,4.0,0.0,5.0,2.0,92.0,2.0,0.0,0.0,2.0,80.26,123.0190525,3.24e-07,461.9838779
7598,C-1105,"methyl  2,2-diethylmalonurate","InChI=1S/C9H16N2O4/c1-4-9(5-2,7(13)15-3)6(12)11-8(10)14/h4-5H2,1-3H3,(H3,10,11,12,14)",XHBHEPKDMPOVAT-UHFFFAOYSA-N,CCC(CC)(C(=O)NC(N)=O)C(=O)OC,-1.96,0.0,1.0,G1,216.237,0.1607,52.7571,15.0,4.0,2.0,6.0,4.0,86.0,0.0,0.0,0.0,0.0,98.49,88.14665235,5.001716279,271.2859096
6482,B-3467,tebufenpyrad,"InChI=1S/C18H24ClN3O/c1-6-14-15(19)16(22(5)21-14)17(23)20-11-12-7-9-13(10-8-12)18(2,3)4/h7-10H,6,11H2,1-5H3,(H,20,23)",ZZYSLNWGKKDOML-UHFFFAOYSA-N,CCc1nn(C)c(C(=O)NCc2ccc(cc2)C(C)(C)C)c1Cl,-5.1086,0.0,1.0,G1,333.863,3.8634,93.9082,23.0,3.0,1.0,5.0,4.0,124.0,2.0,0.0,0.0,2.0,46.92,142.3948603,2.063459489,696.2921568
663,A-1154,pentyl formate,"InChI=1S/C6H12O2/c1-2-3-4-5-8-6-7/h6H,2-5H2,1H3",DIQMPQMYFZXDAX-UHFFFAOYSA-N,CCCCCOC=O,-1.602059991,0.0,1.0,G1,116.16,1.3496,31.541,8.0,2.0,0.0,2.0,5.0,48.0,0.0,0.0,0.0,0.0,26.3,49.83902893,2.61629309,52.490225
7665,C-1263,"2-benzoyloxy-n,n-diisopropylacetamide;  n,n-diisopropyl-2-benzoyloxyacetamide","InChI=1S/C15H21NO3/c1-11(2)16(12(3)4)14(17)10-19-15(18)13-8-6-5-7-9-13/h5-9,11-12H,10H2,1-4H3",ZWUAUTPCFIIFAS-UHFFFAOYSA-N,CC(C)N(C(C)C)C(=O)COC(=O)C1=CC=CC=C1,-3.34,0.0,1.0,G1,263.337,2.4888,73.8425,19.0,3.0,0.0,4.0,5.0,104.0,1.0,0.0,0.0,1.0,46.61,113.9123052,2.567378229,418.2766441
2245,A-3723,tributoxyalumane,"InChI=1S/3C4H9O.Al/c3*1-2-3-4-5;/h3*2-4H2,1H3;/q3*-1;+3",MYWQGROTKMBNKN-UHFFFAOYSA-N,[Al+3].CCCC[O-].CCCC[O-].CCCC[O-],-1.737335476,0.106708547,3.0,G5,246.327,0.0596,65.079,16.0,3.0,0.0,4.0,6.0,96.0,0.0,0.0,0.0,0.0,69.18,112.0214908,-6.55e-08,53.01955001
8496,C-2576,lasinavir,"InChI=1S/C35H53N3O9/c1-22(2)30(33(41)36-15-16-43-6)38-32(40)25(17-24-19-28(44-7)31(46-9)29(20-24)45-8)21-27(39)26(18-23-13-11-10-12-14-23)37-34(42)47-35(3,4)5/h10-14,19-20,22,25-27,30,39H,15-18,21H2,1-9H3,(H,36,41)(H,37,42)(H,38,40)",BQXKPLXLMDOCBL-UHFFFAOYSA-N,COCCNC(=O)C(NC(=O)C(CC(O)C(CC1=CC=CC=C1)NC(=O)OC(C)(C)C)CC2=CC(=C(OC)C(=C2)OC)OC)C(C)C,-4.0,0.0,1.0,G1,659.821,3.6615,178.8739,47.0,9.0,4.0,12.0,18.0,262.0,2.0,0.0,0.0,2.0,153.68,278.3782787,2.47611198,1255.796248
84,A-139,trimethyl[(trimethylsilyl)oxy]silane,"InChI=1S/C6H18OSi2/c1-8(2,3)7-9(4,5)6/h1-6H3",UQEAIHBTYFGYIE-UHFFFAOYSA-N,C[Si](C)(C)O[Si](C)(C)C,-4.909505216,0.166247392,2.0,G3,162.381,2.6728,47.777,9.0,1.0,0.0,3.0,2.0,56.0,0.0,0.0,0.0,0.0,9.23,60.68613838,3.746417931,76.21143267
7667,C-1267,hexyl  5-fluorouracil-1-carboxylate;  1-hexoxycarbonyl-5-fluorouracil,"InChI=1S/C11H15FN2O4/c1-2-3-4-5-6-18-11(17)14-7-8(12)9(15)13-10(14)16/h7H,2-6H2,1H3,(H,13,15,16)",LAUBAKJLUNBTEP-UHFFFAOYSA-N,CCCCCCOC(=O)N1C=C(F)C(=O)NC1=O,-2.24,0.0,1.0,G1,258.249,1.2407,62.1687,18.0,5.0,1.0,7.0,5.0,100.0,1.0,0.0,0.0,1.0,81.16,102.3989123,2.595469443,520.5098771
9339,F-674,N-(N-Methylcarbamimidoyl)-2-naphthalenesulfonamide,"InChI=1S/C12H13N3O2S/c1-14-12(13)15-18(16,17)11-7-6-9-4-2-3-5-10(9)8-11/h2-8H,1H3,(H3,13,14,15)",HNNWFOKEOYHSCW-UHFFFAOYSA-N,CNC(=N)NS(=O)(=O)C1=CC2=C(C=CC=C2)C=C1,-3.1,0.0,1.0,G1,263.322,1.27227,71.0559,18.0,3.0,3.0,6.0,2.0,94.0,2.0,0.0,0.0,2.0,82.05,105.3888031,2.445616716,695.28967
3960,B-493,"hexanedioic acid, bis(2-methoxyethyl) ester","InChI=1S/C12H22O6/c1-15-7-9-17-11(13)5-3-4-6-12(14)18-10-8-16-2/h3-10H2,1-2H3",GVRNUDCCYWKHMV-UHFFFAOYSA-N,COCCOC(=O)CCCCC(=O)OCCOC,-1.2665,0.0,1.0,G1,262.302,0.926,64.138,18.0,6.0,0.0,6.0,11.0,106.0,0.0,0.0,0.0,0.0,71.06,107.5308394,3.323319424,204.607525
7127,B-4531,4-(sec-butyl)-2-nitrophenol,"InChI=1S/C10H13NO3/c1-3-7(2)8-4-5-10(12)9(6-8)11(13)14/h4-7,12H,3H2,1-2H3",GCDCKEORRIGZKI-UHFFFAOYSA-N,CCC(C)c1ccc(O)c(c1)[N+]([O-])=O,-3.8403,0.0,1.0,G1,195.218,2.8139,53.4672,14.0,3.0,1.0,4.0,3.0,76.0,1.0,0.0,0.0,1.0,63.37,82.33838105,3.123580798,349.2203894
448,A-784,N-methyl-N-phenylformamide,"InChI=1S/C8H9NO/c1-9(7-10)8-5-3-2-4-6-8/h2-7H,1H3",JIKUXBYRTXDNIY-UHFFFAOYSA-N,CN(C=O)c1ccccc1,-1.494780947,0.0,1.0,G1,135.166,1.2792,40.909,10.0,1.0,0.0,2.0,2.0,52.0,1.0,0.0,0.0,1.0,20.31,60.08264312,2.842015016,207.757393
3613,A-6047,"2,2'-[[4-[(3,5-dinitro-2-thienyl)azo]phenyl]imino]bisethyl diacetate","InChI=1S/C18H19N5O8S/c1-12(24)30-9-7-21(8-10-31-13(2)25)15-5-3-14(4-6-15)19-20-18-16(22(26)27)11-17(32-18)23(28)29/h3-6,11H,7-10H2,1-2H3",YPNBSXJSFUWYMV-UHFFFAOYSA-N,CC(=O)OCCN(CCOC(C)=O)c1ccc(cc1)N=Nc2sc(cc2[N+]([O-])=O)[N+]([O-])=O,-7.547293505,0.0,1.0,G1,465.444,3.9125,113.7248,32.0,12.0,0.0,14.0,11.0,170.0,2.0,0.0,0.0,2.0,166.84,185.1110951,2.142720475,1000.8774
913,A-1569,"5-nitro-2,3-dihydro-1H-1,2,4-triazol-3-one","InChI=1S/C2H2N4O3/c7-2-3-1(4-5-2)6(8)9/h(H2,3,4,5,7)",QJTIRVUEVSKJTK-UHFFFAOYSA-N,[O-][N+](=O)C1=NC(=O)NN1,-0.87862532,0.0,1.0,G1,130.063,-0.9938,25.8628,9.0,4.0,2.0,7.0,1.0,48.0,1.0,0.0,0.0,1.0,104.68,47.86281089,3.122372098,271.340157
4215,B-876,"1h-1,2,3-triazolo[4,5-d]pyrimidine","InChI=1S/C4H3N5/c1-3-4(6-2-5-1)8-9-7-3/h1-2H,(H,5,6,7,8,9)",GIIGHSIIKVOWKZ-UHFFFAOYSA-N,[nH]1nc2cncnc2n1,-0.2319,0.0,1.0,G1,121.103,-0.2521,29.4787,9.0,4.0,1.0,5.0,0.0,44.0,2.0,0.0,0.0,2.0,67.35,50.13772713,2.95465979,282.9357807
5730,B-2630,formetanate hydrochloride,"InChI=1S/C11H15N3O2.ClH/c1-12-11(15)16-10-6-4-5-9(7-10)13-8-14(2)3;/h4-8H,1-3H3,(H,12,15);1H",MYPKGPZHHQEODQ-UHFFFAOYSA-N,[H+].[Cl-].CNC(=O)Oc1cccc(c1)N=CN(C)C,0.5037,0.0,1.0,G1,257.721,-1.2573,64.4767,17.0,3.0,1.0,6.0,3.0,94.0,1.0,0.0,0.0,1.0,53.93,108.374091,0.0,399.6296444
2117,A-3496,"4-methyl-1,3-oxazole-5-carbonitrile","InChI=1S/C5H4N2O/c1-4-5(2-6)8-3-7-4/h3H,1H3",JZSLPQXOLZCAME-UHFFFAOYSA-N,Cc1ncoc1C#N,-0.324555733,0.0,1.0,G1,108.1,0.8547,25.955,8.0,3.0,0.0,3.0,0.0,40.0,1.0,0.0,0.0,1.0,49.82,46.56784427,3.154803644,220.577696
9705,F-1177,"3-[(2-Nitrophenyl)hydrazono]-6-oxo-1,4-cyclohexadiene-1-carboxylic acid","InChI=1S/C13H9N3O5/c17-12-6-5-8(7-9(12)13(18)19)14-15-10-3-1-2-4-11(10)16(20)21/h1-7,15H,(H,18,19)",OVZUMYVWPIEZMH-UHFFFAOYSA-N,C1=CC=C(C(=C1)NN=C2C=CC(=O)C(=C2)C(=O)O)[N+](=O)[O-],-2.01,0.0,1.0,G1,287.231,1.5126,74.0199,21.0,6.0,2.0,8.0,4.0,106.0,1.0,0.0,1.0,2.0,121.9,117.7865351,2.265157812,718.2718465
8431,C-2506,"2-sulfamoyl-5-(4-nitrobenzenesulfonamido)-1,3,4-thiadiazole","InChI=1S/C8H7N5O6S3/c9-21(16,17)8-11-10-7(20-8)12-22(18,19)6-3-1-5(2-4-6)13(14)15/h1-4H,(H,10,12)(H2,9,16,17)",UZKSIVGPWQRGOU-UHFFFAOYSA-N,N[S](=O)(=O)C1=NN=C(N[S](=O)(=O)C2=CC=C(C=C2)[N+]([O-])=O)S1,-1.33,0.0,1.0,G1,365.374,-0.1055,75.1871,22.0,9.0,2.0,14.0,5.0,118.0,2.0,0.0,0.0,2.0,175.25,127.6008905,2.275296641,917.4360395
8349,C-2388,enrofloxacin,"InChI=1S/C19H22FN3O3/c1-2-21-5-7-22(8-6-21)17-10-16-13(9-15(17)20)18(24)14(19(25)26)11-23(16)12-3-4-12/h9-12H,2-8H2,1H3,(H,25,26)",SPFYMRJSYKOXGV-UHFFFAOYSA-N,CCN1CCN(CC1)C2=CC3=C(C=C2F)C(=O)C(=CN3C4CC4)C(O)=O,-3.18,0.0,1.0,G1,359.401,2.3156,97.7233,26.0,5.0,1.0,7.0,4.0,138.0,2.0,2.0,2.0,4.0,65.78,149.9829267,1.834238302,927.7517572
9020,F-165,2-(1-hydroxy-1-oxopropan-2-yl)disulfanylpropanoic acid,"InChI=1S/C6H10O4S2/c1-3(5(7)8)11-12-4(2)6(9)10/h3-4H,1-2H3,(H,7,8)(H,9,10)",UTDRPUGFHHVEDG-UHFFFAOYSA-N,CC(SSC(C)C(=O)O)C(=O)O,-0.62,0.0,1.0,G1,210.276,1.314,49.3776,12.0,4.0,2.0,6.0,5.0,70.0,0.0,0.0,0.0,0.0,74.6,78.12165544,3.680658332,162.3868988
586,A-1033,2-methylbutyl acrylate,"InChI=1S/C8H14O2/c1-4-7(3)6-10-8(9)5-2/h5,7H,2,4,6H2,1,3H3",NCTBYWFEJFTVEL-UHFFFAOYSA-N,CCC(C)COC(=O)C=C,-2.653206406,0.0,1.0,G1,142.198,1.7617,40.611,10.0,2.0,0.0,2.0,4.0,58.0,0.0,0.0,0.0,0.0,26.3,61.87931013,3.344132679,118.4259988
2741,A-4577,strontium tartarate,"InChI=1S/C4H6O6.Sr/c5-1(3(7)8)2(6)4(9)10;/h1-2,5-6H,(H,7,8)(H,9,10);",YRUOECKPPZQJHI-UHFFFAOYSA-N,[Sr].OC(C(O)C(O)=O)C(O)=O,-2.1065272,0.0,1.0,G1,237.706,-2.5034,33.0392,11.0,4.0,4.0,7.0,3.0,60.0,0.0,0.0,0.0,0.0,115.06,98.72205236,0.0,138.6612729
9718,F-1193,4-phenyldiazenylphenol,"InChI=1S/C12H10N2O/c15-12-8-6-11(7-9-12)14-13-10-4-2-1-3-5-10/h1-9,15H",BEYOBVMPDRKTNR-UHFFFAOYSA-N,OC1=CC=C(N=NC2=CC=CC=C2)C=C1,-3.95,0.305,2.0,G3,198.225,3.8076,58.7248,15.0,3.0,1.0,3.0,2.0,74.0,2.0,0.0,0.0,2.0,44.95,87.72950892,2.152989282,448.8081524
7245,C-161,3-hydroxybenzoic acid,"InChI=1S/C7H6O3/c8-6-3-1-2-5(4-6)7(9)10/h1-4,8H,(H,9,10)",IJFXRHURBJZNAO-UHFFFAOYSA-N,OC(=O)C1=CC(=CC=C1)O,-1.24,0.01995,2.0,G3,138.122,1.0904,35.0661,10.0,2.0,2.0,3.0,1.0,52.0,1.0,0.0,0.0,1.0,57.53,57.54633484,3.069899266,254.7830614
2495,A-4175,"diallyl oxydiethane-2,1-diyl biscarbonate","InChI=1S/C12H18O7/c1-3-5-16-11(13)18-9-7-15-8-10-19-12(14)17-6-4-2/h3-4H,1-2,5-10H2",JHQVCQDWGSXTFE-UHFFFAOYSA-N,C=CCOC(=O)OCCOCCOC(=O)OCC=C,-2.06526472,0.0,1.0,G1,274.269,1.6814,65.813,19.0,7.0,0.0,7.0,10.0,108.0,0.0,0.0,0.0,0.0,80.29,111.2651786,3.263296478,259.802486
4452,B-1160,nebularine,"InChI=1S/C10H12N4O4/c15-2-6-7(16)8(17)10(18-6)14-4-13-5-1-11-3-12-9(5)14/h1,3-4,6-8,10,15-17H,2H2/t6-,7-,8-,10-/m1/s1",MRWXACSTFXYYMV-FDDDBJFASA-N,OC[C@H]1O[C@H]([C@H](O)[C@@H]1O)n2cnc3cncnc23,-0.4018,0.0,1.0,G1,252.23,-1.5622,58.3324,18.0,8.0,3.0,8.0,2.0,96.0,2.0,1.0,1.0,3.0,113.52,101.5062694,2.00195342,559.5561849
3785,B-214,triphenylcarbinol,"InChI=1S/C19H16O/c20-19(16-10-4-1-5-11-16,17-12-6-2-7-13-17)18-14-8-3-9-15-18/h1-15,20H",LZTRCELOJRDYMQ-UHFFFAOYSA-N,OC(c1ccccc1)(c2ccccc2)c3ccccc3,-2.2596,0.0,1.0,G1,260.336,3.9708,81.4268,20.0,1.0,1.0,1.0,3.0,98.0,3.0,0.0,0.0,3.0,20.23,118.7047674,2.238808464,563.2391421
414,A-708,"1,3,5-trimethylbenzene","InChI=1S/C9H12/c1-7-4-8(2)6-9(3)5-7/h4-6H,1-3H3",AUHZEENZYGFFBQ-UHFFFAOYSA-N,Cc1cc(C)cc(C)c1,-3.382657059,0.007091152,2.0,G3,120.195,2.61186,40.653,9.0,0.0,0.0,0.0,0.0,48.0,1.0,0.0,0.0,1.0,0.0,56.52622946,3.16567031,160.8005151
6428,B-3412,"acetamide, 2-(benzoyloxy)-n,n-dibutyl-","InChI=1S/C17H25NO3/c1-3-5-12-18(13-6-4-2)16(19)14-21-17(20)15-10-8-7-9-11-15/h7-11H,3-6,12-14H2,1-2H3",ORAHATGHUWMRCM-UHFFFAOYSA-N,CCCCN(CCCC)C(=O)COC(=O)c1ccccc1,-3.5614,0.0,1.0,G1,291.391,3.2722,83.1205,21.0,3.0,0.0,4.0,9.0,116.0,1.0,0.0,0.0,1.0,46.61,126.6421895,2.462570755,422.9211778
3704,B-75,prochloroperazine,"InChI=1S/C20H24ClN3S/c1-22-11-13-23(14-12-22)9-4-10-24-17-5-2-3-6-19(17)25-20-8-7-16(21)15-18(20)24/h2-3,5-8,15H,4,9-14H2,1H3",WIKYUJGCLQQFNW-UHFFFAOYSA-N,CN1CCN(CCCN2c3ccccc3Sc4ccc(Cl)cc24)CC1,-4.3979,0.0,1.0,G1,373.953,4.5802,107.577,25.0,4.0,0.0,5.0,4.0,132.0,2.0,1.0,2.0,4.0,9.72,159.1022492,1.493235645,743.4711668
4651,B-1402,"hexanedioic acid, monoethyl ester","InChI=1S/C8H14O4/c1-2-12-8(11)6-4-3-5-7(9)10/h2-6H2,1H3,(H,9,10)",UZNLHJCCGYKCIL-UHFFFAOYSA-N,CCOC(=O)CCCCC(O)=O,-0.3602,0.0,1.0,G1,174.196,1.1945,42.7368,12.0,3.0,1.0,4.0,6.0,70.0,0.0,0.0,0.0,0.0,63.6,71.52466901,3.192499287,153.1368501
6536,B-3523,tert-butyl (1-(4-chloro)phenylsulfonyl) cyclopro,"InChI=1S/C14H17ClO4S/c1-13(2,3)19-12(16)14(8-9-14)20(17,18)11-6-4-10(15)5-7-11/h4-7H,8-9H2,1-3H3",GMJAXKKUTHHHMD-UHFFFAOYSA-N,CC(C)(C)OC(=O)C1(CC1)[S](=O)(=O)c2ccc(Cl)cc2,-4.1206,0.0,1.0,G1,316.806,2.988,76.4478,20.0,4.0,0.0,6.0,3.0,110.0,1.0,1.0,1.0,2.0,60.44,123.5488408,2.340104014,622.1329041
3761,B-177,bromoform,InChI=1S/CHBr3/c2-1(3)4/h1H,DIKBFYAXUHHXCS-UHFFFAOYSA-N,BrC(Br)Br,-1.9113,0.05165,2.0,G3,252.731,2.4547,30.569,4.0,0.0,0.0,3.0,0.0,26.0,0.0,0.0,0.0,0.0,0.0,50.34189384,2.323790008,8.0
7763,C-1438,oxadiazon,"InChI=1S/C15H18Cl2N2O3/c1-8(2)21-12-7-11(9(16)6-10(12)17)19-14(20)22-13(18-19)15(3,4)5/h6-8H,1-5H3",CHNUNORXWHYHNE-UHFFFAOYSA-N,CC(C)OC1=C(Cl)C=C(Cl)C(=C1)N2N=C(OC2=O)C(C)(C)C,-5.54,0.0765,2.0,G3,345.226,4.217,86.584,22.0,5.0,0.0,7.0,3.0,120.0,2.0,0.0,0.0,2.0,57.26,138.3367422,2.576230938,742.2214387
6082,B-3033,"4'-(Bis(2-hydroxyethyl)amino)-2,6-dichloro-2'-methyl-4-nitroazobenzene","InChI=1S/C17H18Cl2N4O4/c1-11-8-12(22(4-6-24)5-7-25)2-3-16(11)20-21-17-14(18)9-13(23(26)27)10-15(17)19/h2-3,8-10,24-25H,4-7H2,1H3",VJCRGIYTUNCUJU-UHFFFAOYSA-N,Cc1cc(ccc1N=Nc2c(Cl)cc(cc2Cl)[N+]([O-])=O)N(CCO)CCO,-5.9592,0.0,1.0,G1,413.261,4.41642,104.856,27.0,7.0,2.0,10.0,8.0,144.0,2.0,0.0,0.0,2.0,111.56,165.3677951,2.287471574,831.8173161
4580,B-1316,"benzoic acid, 2-benzoyl-, methyl ester","InChI=1S/C15H12O3/c1-18-15(17)13-10-6-5-9-12(13)14(16)11-7-3-2-4-8-11/h2-10H,1H3",NQSMEZJWJJVYOI-UHFFFAOYSA-N,COC(=O)c1ccccc1C(=O)c2ccccc2,-3.4776,0.151313347,3.0,G5,240.258,2.7042,67.656,18.0,3.0,0.0,3.0,3.0,90.0,2.0,0.0,0.0,2.0,43.37,105.0199131,2.458399254,573.3024023
9212,F-489,1-nitrosonaphthalen-2-ol,"InChI=1S/C10H7NO2/c12-9-6-5-7-3-1-2-4-8(7)10(9)11-13/h1-6,13H",CAQHPYSDQFDJAL-UHFFFAOYSA-N,O=C1C=CC2=C(C=CC=C2)C1=NO,-2.94,0.0,1.0,G1,173.171,1.4608,48.8065,13.0,3.0,1.0,3.0,0.0,64.0,1.0,0.0,1.0,2.0,49.66,75.00085423,2.670687493,418.6878518
896,A-1542,cyclododecanol,"InChI=1S/C12H24O/c13-12-10-8-6-4-2-1-3-5-7-9-11-12/h12-13H,1-11H2",SFVWPXMPRCIVOK-UHFFFAOYSA-N,OC1CCCCCCCCCCC1,-3.989117726,0.162799094,2.0,G3,184.323,3.652,56.7938,13.0,1.0,1.0,1.0,0.0,78.0,0.0,1.0,1.0,1.0,20.23,82.54201688,2.107958164,99.69210414
6345,B-3323,"nonanoic acid, 2,3-dihydroxy-","InChI=1S/C9H18O4/c1-2-3-4-5-6-7(10)8(11)9(12)13/h7-8,10-11H,2-6H2,1H3,(H,12,13)",ALUALOYLCXZDMJ-UHFFFAOYSA-N,CCCCCCC(O)C(O)C(O)=O,-1.5469,0.0,1.0,G1,190.239,0.7632,48.4084,13.0,3.0,3.0,4.0,7.0,78.0,0.0,0.0,0.0,0.0,77.76,78.2030113,3.495164356,146.5501279
6746,B-3956,1-hexene,"InChI=1S/C6H12/c1-3-5-6-4-2/h3H,1,4-6H2,2H3",LIKMAJRDDDTEIG-UHFFFAOYSA-N,CCCCC=C,-3.2261,0.0,1.0,G1,84.162,2.3626,29.722,6.0,0.0,0.0,0.0,3.0,36.0,0.0,0.0,0.0,0.0,0.0,39.87435857,2.488403772,29.01955001
9593,F-1026,4-amino-1-[5-(hydroxymethyl)oxolan-2-yl]pyrimidin-2-one,"InChI=1S/C9H13N3O3/c10-7-3-4-12(9(14)11-7)8-2-1-6(5-13)15-8/h3-4,6,8,13H,1-2,5H2,(H2,10,11,14)",WREGKURFCTUGRC-UHFFFAOYSA-N,NC1=NC(=O)N(C2CCC(CO)O2)C=C1,-0.43,0.0,1.0,G1,211.221,-0.5046,53.1392,15.0,6.0,2.0,6.0,2.0,82.0,1.0,1.0,1.0,2.0,90.37,86.30874177,2.204299752,403.8341972
7600,C-1110,"endothall; 7-oxabicyclo[2.2.1]heptan-2,3-dicarboxylic  acid","InChI=1S/C8H10O5/c9-7(10)5-3-1-2-4(13-3)6(5)8(11)12/h3-6H,1-2H2,(H,9,10)(H,11,12)",GXEKYRXVRROBEV-UHFFFAOYSA-N,OC(=O)C1C2CCC(O2)C1C(O)=O,-0.27,0.0,1.0,G1,186.163,-0.0508,40.1466,13.0,3.0,2.0,5.0,2.0,72.0,0.0,2.0,2.0,2.0,83.83,74.30724046,2.244421562,235.260001
3715,B-90,dopa,"InChI=1S/C9H11NO4/c10-6(9(13)14)3-5-1-2-7(11)8(12)4-5/h1-2,4,6,11-12H,3,10H2,(H,13,14)",WTDRDQBEARUVNC-UHFFFAOYSA-N,NC(Cc1ccc(O)c(O)c1)C(O)=O,-1.5959,0.144749446,3.0,G5,197.19,0.0522,49.0868,14.0,4.0,4.0,5.0,3.0,76.0,1.0,0.0,0.0,1.0,103.78,80.41034352,2.777268027,350.6652328
4781,B-1566,"phosphoramidic acid, (4-methyl-1,3-dithiolan-2-y","InChI=1S/C8H16NO3PS2/c1-4-11-13(10,12-5-2)9-8-14-6-7(3)15-8/h7H,4-6H2,1-3H3",LTQSAUHRSCMPLD-UHFFFAOYSA-N,CCO[P](=O)(OCC)N=C1SCC(C)S1,-3.6744,0.0,1.0,G1,269.328,3.392,67.8045,15.0,5.0,0.0,7.0,5.0,88.0,0.0,1.0,1.0,1.0,47.89,99.17579746,2.686058675,275.0603471
1463,A-2513,"N-{2-[(E)-2-(2-chloro-4,6-dinitrophenyl)diazen-1-yl]-5-(diethylamino)-4-methoxyphenyl}acetamide","InChI=1S/C19H21ClN6O6/c1-5-24(6-2)16-9-14(21-11(3)27)15(10-18(16)32-4)22-23-19-13(20)7-12(25(28)29)8-17(19)26(30)31/h7-10H,5-6H2,1-4H3,(H,21,27)",LJIKWZXCXJFCCB-UHFFFAOYSA-N,CCN(CC)c1cc(NC(C)=O)c(cc1OC)N=Nc2c(Cl)cc(cc2[N+]([O-])=O)[N+]([O-])=O,-4.667327783,0.0,1.0,G1,464.866,5.385,119.7955,32.0,9.0,1.0,13.0,9.0,170.0,2.0,0.0,0.0,2.0,152.57,187.6838508,2.66398774,1086.463201
6613,B-3649,p-fluorobenzyl chloride,"InChI=1S/C7H6ClF/c8-5-6-1-3-7(9)4-2-6/h1-4H,5H2",IZXWCDITFDNEBY-UHFFFAOYSA-N,Fc1ccc(CCl)cc1,-2.5442,0.0,1.0,G1,144.576,2.5645,35.957,9.0,0.0,0.0,2.0,1.0,48.0,1.0,0.0,0.0,1.0,0.0,58.26514686,2.881555878,180.6125685
3518,A-5883,decanoyl decaneperoxoate,"InChI=1S/C20H38O4/c1-3-5-7-9-11-13-15-17-19(21)23-24-20(22)18-16-14-12-10-8-6-4-2/h3-18H2,1-2H3",XJOBOFWTZOKMOH-UHFFFAOYSA-N,CCCCCCCCCC(=O)OOC(=O)CCCCCCCCC,-6.44975236,0.0,1.0,G1,342.52,6.2692,97.404,24.0,4.0,0.0,4.0,16.0,142.0,0.0,0.0,0.0,0.0,52.6,148.1525812,3.341157474,272.0139739
7960,C-1814,3-butyryl-5-fluorouracil,"InChI=1S/C8H9FN2O3/c1-2-3-6(12)11-7(13)5(9)4-10-8(11)14/h4H,2-3H2,1H3,(H,10,14)",SHSQCPXGYRPQDR-UHFFFAOYSA-N,CCCC(=O)N1C(=O)NC=C(F)C1=O,-1.28,0.0,1.0,G1,200.169,0.116,46.8152,14.0,4.0,1.0,6.0,2.0,76.0,1.0,0.0,0.0,1.0,71.93,78.19054073,3.334721047,460.3895755