,ID,Name,InChI,InChIKey,SMILES,Solubility,SD,Ocurrences,Group,MolWt,MolLogP,MolMR,HeavyAtomCount,NumHAcceptors,NumHDonors,NumHeteroatoms,NumRotatableBonds,NumValenceElectrons,NumAromaticRings,NumSaturatedRings,NumAliphaticRings,RingCount,TPSA,LabuteASA,BalabanJ,BertzCT
7970,C-1830,pyracarbolid;  sicarol,"InChI=1S/C13H15NO2/c1-10-12(8-5-9-16-10)13(15)14-11-6-3-2-4-7-11/h2-4,6-7H,5,8-9H2,1H3,(H,14,15)",YPCALTGLHFLNGA-UHFFFAOYSA-N,CC1=C(CCCO1)C(=O)NC2=CC=CC=C2,-2.56,0.0,1.0,G1,217.268,2.7095,62.9577,16.0,2.0,1.0,3.0,2.0,84.0,1.0,0.0,1.0,2.0,38.33,95.11549325,2.086650444,409.2005876
1281,A-2229,"1,1'-(2,3-dimethylbutane-2,3-diyl)dibenzene","InChI=1S/C18H22/c1-17(2,15-11-7-5-8-12-15)18(3,4)16-13-9-6-10-14-16/h5-14H,1-4H3",HGTUJZTUQFXBIH-UHFFFAOYSA-N,CC(C)(c1ccccc1)C(C)(C)c2ccccc2,-6.474168897,0.0,1.0,G1,238.374,4.942,78.936,18.0,0.0,0.0,0.0,3.0,94.0,2.0,0.0,0.0,2.0,0.0,110.67815,2.466536213,442.5762241
6600,B-3622,p-ethyltoluene,"InChI=1S/C9H12/c1-3-9-6-4-8(2)5-7-9/h4-7H,3H2,1-2H3",JRLPEMVDPFPYPJ-UHFFFAOYSA-N,CCc1ccc(C)cc1,-3.1026,0.0,1.0,G1,120.195,2.55742,40.557,9.0,0.0,0.0,0.0,1.0,48.0,1.0,0.0,0.0,1.0,0.0,56.52622946,2.881555878,171.734728
4893,B-1698,"1,10-phenanthroline, 3,4,7,8-tetramethyl-","InChI=1S/C16H16N2/c1-9-7-17-15-13(11(9)3)5-6-14-12(4)10(2)8-18-16(14)15/h5-8H,1-4H3",NPAXPTHCUCUHPT-UHFFFAOYSA-N,Cc1cnc2c(ccc3c(C)c(C)cnc23)c1C,-5.1939,0.0,1.0,G1,236.318,4.01668,75.992,18.0,2.0,0.0,2.0,0.0,90.0,3.0,0.0,0.0,3.0,25.78,106.6937966,2.55590102,706.238143
1325,A-2297,"2-ethyl-2-[2-(6-methoxy-3,4-dihydro-2H-naphthalen-1-ylidene)ethyl]cyclopentane-1,3-dione","InChI=1S/C20H24O3/c1-3-20(18(21)9-10-19(20)22)12-11-14-5-4-6-15-13-16(23-2)7-8-17(14)15/h7-8,11,13H,3-6,9-10,12H2,1-2H3/b14-11+",OMXFYKCGCDGYNC-SDNWHVSQSA-N,CCC1(C\C=C2/CCCc3cc(OC)ccc23)C(=O)CCC1=O,-4.172504242,0.0,1.0,G1,312.409,4.1334,90.498,23.0,3.0,0.0,3.0,4.0,122.0,1.0,1.0,2.0,3.0,43.37,137.2759168,1.898753624,653.4644012
9330,F-663,Octyl 3-bromo-4-hydroxybenzoate,"InChI=1S/C15H21BrO3/c1-2-3-4-5-6-7-10-19-15(18)12-8-9-14(17)13(16)11-12/h8-9,11,17H,2-7,10H2,1H3",DSRZQIDFVZUCGM-UHFFFAOYSA-N,CCCCCCCCOC(=O)C1=CC(Br)=C(O)C=C1,-4.52,0.0,1.0,G1,329.234,4.672,79.4653,19.0,3.0,1.0,4.0,8.0,106.0,1.0,0.0,0.0,1.0,46.53,122.6527308,2.218736902,404.3772021
3750,B-153,methoxychlor,"InChI=1S/C16H15Cl3O2/c1-20-13-7-3-11(4-8-13)15(16(17,18)19)12-5-9-14(21-2)10-6-12/h3-10,15H,1-2H3",IAKOZHOLGAGEJT-UHFFFAOYSA-N,COc1ccc(cc1)C(c2ccc(OC)cc2)C(Cl)(Cl)Cl,-6.5386,0.188807753,4.0,G5,345.653,5.2059,88.121,21.0,2.0,0.0,5.0,4.0,112.0,2.0,0.0,0.0,2.0,18.46,139.0851549,2.414536858,526.4662385
5020,B-1842,"1-naphthalenecarboxylic acid, 2-hydroxy-","InChI=1S/C11H8O3/c12-9-6-5-7-3-1-2-4-8(7)10(9)11(13)14/h1-6,12H,(H,13,14)",UPHOPMSGKZNELG-UHFFFAOYSA-N,OC(=O)c1c(O)ccc2ccccc12,-3.1284,0.0,1.0,G1,188.182,2.2436,52.5721,14.0,2.0,2.0,3.0,1.0,70.0,2.0,0.0,0.0,2.0,57.53,80.22799937,2.895160177,502.8588453
236,A-397,"1,1,2,2,3,3,4-heptafluorocyclopentane","InChI=1S/C5H3F7/c6-2-1-3(7,8)5(11,12)4(2,9)10/h2H,1H2",IDBYQQQHBYGLEQ-UHFFFAOYSA-N,FC1CC(F)(F)C(F)(F)C1(F)F,-2.436880918,0.0,1.0,G1,196.065,2.6341,24.354,12.0,0.0,0.0,7.0,0.0,72.0,0.0,1.0,1.0,1.0,0.0,62.35193615,3.099777273,195.9734163
9082,F-270,1-Nitronaphthalene,InChI=1S/C10H7NO2/c12-11(13)10-7-3-5-8-4-1-2-6-9(8)10/h1-7H,RJKGJBPXVHTNJL-UHFFFAOYSA-N,C1=CC=C2C(=C1)C=CC=C2[N+](=O)[O-],-3.71,0.314450265,3.0,G5,173.171,2.748,50.6024,13.0,2.0,0.0,3.0,1.0,64.0,2.0,0.0,0.0,2.0,43.14,74.76604337,2.830975658,459.9363286
2385,A-3985,barium(2+) ion dichloride,InChI=1S/Ba.2ClH.2H2O/h;2*1H;2*1H2/q+2;;;;/p-2,PWHCIQQGOQTFAE-UHFFFAOYSA-L,O.O.[Cl-].[Cl-].[Ba++],0.041892815,0.005578401,2.0,G3,244.264,-8.0222,12.9816,5.0,0.0,0.0,5.0,0.0,32.0,0.0,0.0,0.0,0.0,63.0,83.21231168,0.0,7.609640474
5365,B-2221,"lactamide, n-octyl-","InChI=1S/C11H23NO2/c1-3-4-5-6-7-8-9-12-11(14)10(2)13/h10,13H,3-9H2,1-2H3,(H,12,14)",QGZRRRDVKLFCCS-UHFFFAOYSA-N,CCCCCCCCNC(=O)C(C)O,-2.2827,0.0,1.0,G1,201.31,1.8439,58.0665,14.0,2.0,2.0,3.0,8.0,84.0,0.0,0.0,0.0,0.0,49.33,86.89429021,3.095845581,146.2229577
3405,A-5617,silver(1+) docosanoate,"InChI=1S/C22H44O2.Ag/c1-2-3-4-5-6-7-8-9-10-11-12-13-14-15-16-17-18-19-20-21-22(23)24;/h2-21H2,1H3,(H,23,24);/q;+1/p-1",AQRYNYUOKMNDDV-UHFFFAOYSA-M,[Ag+].CCCCCCCCCCCCCCCCCCCCCC([O-])=O,-6.782690092,0.226541507,2.0,G3,447.452,6.5557,103.021,25.0,2.0,0.0,3.0,20.0,154.0,0.0,0.0,0.0,0.0,40.13,172.9921941,0.0,256.4117745
5441,B-2305,sulfur dioxide,InChI=1S/O2S/c1-3-2,RAHZWNYVWXNFOC-UHFFFAOYSA-N,O=[S]=O,0.2235,0.0,1.0,G1,64.065,-0.6702,8.9198,3.0,2.0,0.0,3.0,0.0,18.0,0.0,0.0,0.0,0.0,34.14,21.06362057,3.265986324,23.77443751
1960,A-3232,"N-methylmethanaminium (2,4-dichlorophenoxy)acetate","InChI=1S/C8H6Cl2O3.C2H7N/c9-5-1-2-7(6(10)3-5)13-4-8(11)12;1-3-2/h1-3H,4H2,(H,11,12);3H,1-2H3",IUQJDHJVPLLKFL-UHFFFAOYSA-N,CNC.OC(=O)COc1ccc(Cl)cc1Cl,0.449977221,0.0,1.0,G1,266.124,2.2924,64.5765,16.0,3.0,2.0,6.0,3.0,90.0,1.0,0.0,0.0,1.0,58.56,104.1226984,6.73e-07,344.8360687
9508,F-885,"N-Hydroxy-3,5-dimethoxy-n-(3-methylphenyl)benzamide","InChI=1S/C16H17NO4/c1-11-5-4-6-13(7-11)17(19)16(18)12-8-14(20-2)10-15(9-12)21-3/h4-10,19H,1-3H3",PDNYHBVQDYRJOT-UHFFFAOYSA-N,COC1=CC(OC)=CC(C(=O)N(O)C2=CC(C)=CC=C2)=C1,-3.61,0.0,1.0,G1,287.315,3.04822,79.321,21.0,4.0,1.0,5.0,4.0,110.0,2.0,0.0,0.0,2.0,59.0,122.8449843,2.346061965,632.2252779
8970,F-74,"Dibenzothiophene 5,5-dioxide",InChI=1S/C12H8O2S/c13-15(14)11-7-3-1-5-9(11)10-6-2-4-8-12(10)15/h1-8H,IKJFYINYNJYDTA-UHFFFAOYSA-N,O=S1(=O)C2=C(C=CC=C2)C2=C1C=CC=C2,-4.57,0.0,1.0,G1,216.261,2.4998,57.3298,15.0,2.0,0.0,3.0,0.0,74.0,2.0,0.0,1.0,3.0,34.14,88.10806455,2.531619996,590.6766248
9004,F-141,"N,N-Bis(2-cyanoethyl)leucine","InChI=1S/C12H19N3O2/c1-10(2)9-11(12(16)17)15(7-3-5-13)8-4-6-14/h10-11H,3-4,7-9H2,1-2H3,(H,16,17)",MJPVXUCPOHIGDM-UHFFFAOYSA-N,CC(C)CC(C(=O)O)N(CCC#N)CCC#N,-1.14,0.0,1.0,G1,237.303,1.61506,62.9118,17.0,4.0,1.0,5.0,8.0,94.0,0.0,0.0,0.0,0.0,88.12,102.2543632,4.619432191,296.6928808
3616,A-6050,"2,3-dihydroxypropyl tetradecanoate","InChI=1S/C17H34O4/c1-2-3-4-5-6-7-8-9-10-11-12-13-17(20)21-15-16(19)14-18/h16,18-19H,2-15H2,1H3",DCBSHORRWZKAKO-UHFFFAOYSA-N,CCCCCCCCCCCCCC(=O)OCC(O)CO,-7.397875398,0.0,1.0,G1,302.455,3.5839,85.1296,21.0,4.0,2.0,4.0,15.0,126.0,0.0,0.0,0.0,0.0,66.76,129.4418597,3.158253746,230.8299976
8806,E-749,bis-(2.chloroethyl)-sulfone,"InChI=1S/C3H6Cl2O2S/c4-1-2-8(6,7)3-5/h1-3H2",XEPMSXZCQZXKRP-UHFFFAOYSA-N,ClCCS(=O)(=O)CCl,-1.5,0.0,1.0,G1,177.052,0.8363,35.2268,8.0,2.0,0.0,5.0,3.0,50.0,0.0,0.0,0.0,0.0,34.14,58.70106609,3.755111608,139.3624125
1754,A-2888,sodium 7-amino-8-[(E)-2-[2-(benzenesulfonyl)phenyl]diazen-1-yl]-3-sulfonaphthalen-1-olate,"InChI=1S/C22H17N3O6S2.Na/c23-17-11-10-14-12-16(33(29,30)31)13-19(26)21(14)22(17)25-24-18-8-4-5-9-20(18)32(27,28)15-6-2-1-3-7-15;/h1-13,23-25H,(H,29,30,31);/q;+1/p-1",BGMJITJZTOJVQD-UHFFFAOYSA-M,[Na+].[O-][S](=O)(=O)C1=CC(=O)C2=C(NNc3ccccc3[S](=O)(=O)c4ccccc4)C(=N)C=CC2=C1,-2.088831676,0.0,1.0,G1,505.509,-0.77823,119.8571,34.0,9.0,3.0,12.0,6.0,168.0,2.0,0.0,2.0,4.0,156.32,217.9520115,3.24e-06,1523.221981
5889,B-2817,tiocarbazil,"InChI=1S/C16H25NOS/c1-5-13(3)17(14(4)6-2)16(18)19-12-15-10-8-7-9-11-15/h7-11,13-14H,5-6,12H2,1-4H3",PHSUVQBHRAWOQD-UHFFFAOYSA-N,CCC(C)N(C(C)CC)C(=O)SCc1ccccc1,-5.0484,0.0,1.0,G1,279.449,4.9388,84.478,19.0,2.0,0.0,3.0,6.0,106.0,1.0,0.0,0.0,1.0,20.31,121.1252901,2.618166877,369.5951399
6647,B-3726,a-bromobutyric acid,"InChI=1S/C4H7BrO2/c1-2-3(5)4(6)7/h3H,2H2,1H3,(H,6,7)",YAQLSKVCTLCIIE-UHFFFAOYSA-N,CCC(Br)C(O)=O,-0.3776,0.0,1.0,G1,167.002,1.2445,30.6418,7.0,1.0,1.0,3.0,2.0,42.0,0.0,0.0,0.0,0.0,37.3,50.65738083,3.343417059,72.09004635
9981,I-94,warfarin,"InChI=1S/C19H16O4/c1-12(20)11-15(13-7-3-2-4-8-13)17-18(21)14-9-5-6-10-16(14)23-19(17)22/h2-10,15,21H,11H2,1H3",PJVWKTKQMONHTI-UHFFFAOYSA-N,CC(=O)CC(c1ccccc1)c1c(O)c2ccccc2oc1=O,-4.78,0.450505888,3.0,G5,308.333,3.6096,87.7318,23.0,4.0,1.0,4.0,4.0,116.0,3.0,0.0,0.0,3.0,67.51,132.5520251,2.258072468,909.5509727
9642,F-1100,"N-(3-bromophenyl)-1H-pyrimido[5,6-f]indazol-5-amine","InChI=1S/C15H10BrN5/c16-10-2-1-3-11(5-10)20-15-12-4-9-7-19-21-13(9)6-14(12)17-8-18-15/h1-8H,(H,19,21)(H,17,18,20)",ORCWMSOZENFEDR-UHFFFAOYSA-N,BrC1=CC=CC(NC2=NC=NC3=CC4=C(C=NN4)C=C32)=C1,-3.96,0.0,1.0,G1,340.184,4.0122,86.6144,21.0,4.0,2.0,6.0,2.0,102.0,4.0,0.0,0.0,4.0,66.49,128.1057941,1.871239559,947.021554
4667,B-1420,1-octyne,"InChI=1S/C8H14/c1-3-5-7-8-6-4-2/h1H,4-8H2,2H3",UMIPWJGWASORKV-UHFFFAOYSA-N,CCCCCCC#C,-3.662,0.0,1.0,G1,110.2,2.59,37.592,8.0,0.0,0.0,0.0,4.0,46.0,0.0,0.0,0.0,0.0,0.0,52.29307122,2.646949874,66.59772061
6307,B-3283,uniconazole,"InChI=1S/C15H18ClN3O/c1-15(2,3)14(20)13(19-10-17-9-18-19)8-11-4-6-12(16)7-5-11/h4-10,14,20H,1-3H3/b13-8+",YNWVFADWVLCOPU-MDWZMJQESA-N,CC(C)(C)C(O)\C(=C/c1ccc(Cl)cc1)n2cncn2,-4.5403,0.0,1.0,G1,291.782,3.3366,81.1028,20.0,4.0,1.0,5.0,3.0,106.0,2.0,0.0,0.0,2.0,50.94,123.2778705,2.440645984,582.5812288
3963,B-498,quinhydrone,"InChI=1S/C6H6O2.C6H4O2/c2*7-5-1-2-6(8)4-3-5/h1-4,7-8H;1-4H",BDJXVNRFAQSMAA-UHFFFAOYSA-N,Oc1ccc(O)cc1.O=C2C=CC(=O)C=C2,-1.7305,0.0,1.0,G1,218.208,1.3484,58.0656,16.0,4.0,2.0,4.0,0.0,82.0,1.0,0.0,1.0,2.0,74.6,92.15336145,1.6e-07,381.5914941
9132,F-363,N-[2-(5-methoxy-1H-indol-3-yl)ethyl]acetamide,"InChI=1S/C13H16N2O2/c1-9(16)14-6-5-10-8-15-13-4-3-11(17-2)7-12(10)13/h3-4,7-8,15H,5-6H2,1-2H3,(H,14,16)",DRLFMBDRBRZALE-UHFFFAOYSA-N,COC1=CC2=C(C=C1)NC=C2CCNC(C)=O,-5.09,0.0,1.0,G1,232.283,1.8551,67.2384,17.0,2.0,2.0,4.0,4.0,90.0,2.0,0.0,0.0,2.0,54.12,99.97186816,2.186875918,531.199026
4809,B-1596,hexyl p-hydroxybenzoate,"InChI=1S/C13H18O3/c1-2-3-4-5-10-16-13(15)11-6-8-12(14)9-7-11/h6-9,14H,2-5,10H2,1H3",ULULAZKOCFNOIM-UHFFFAOYSA-N,CCCCCCOC(=O)c1ccc(O)cc1,-3.949,0.0,1.0,G1,222.284,3.1293,62.5313,16.0,3.0,1.0,3.0,6.0,88.0,1.0,0.0,0.0,1.0,46.53,96.055299,2.270293931,316.4545208
1653,A-2748,4-(4-{2-[4-(4-aminophenoxy)phenyl]propan-2-yl}phenoxy)aniline,"InChI=1S/C27H26N2O2/c1-27(2,19-3-11-23(12-4-19)30-25-15-7-21(28)8-16-25)20-5-13-24(14-6-20)31-26-17-9-22(29)10-18-26/h3-18H,28-29H2,1-2H3",KMKWGXGSGPYISJ-UHFFFAOYSA-N,CC(C)(c1ccc(Oc2ccc(N)cc2)cc1)c3ccc(Oc4ccc(N)cc4)cc3,-7.19172722,0.0,1.0,G1,410.517,6.7615,126.8688,31.0,4.0,2.0,4.0,6.0,156.0,4.0,0.0,0.0,4.0,70.5,182.6043839,1.464476039,1038.990976
2060,A-3398,2-hydroperoxy-2-(2-hydroperoxybutan-2-ylperoxy)butane,"InChI=1S/C8H18O6/c1-5-7(3,11-9)13-14-8(4,6-2)12-10/h9-10H,5-6H2,1-4H3",WFUGQJXVXHBTEM-UHFFFAOYSA-N,CCC(C)(OO)OOC(C)(CC)OO,-1.507773246,0.0,1.0,G1,210.226,2.1662,46.9896,14.0,6.0,2.0,6.0,7.0,86.0,0.0,0.0,0.0,0.0,77.38,83.1243802,4.137038915,133.910494
4673,B-1427,"1,1,1,2-tetrachloroethane","InChI=1S/C2H2Cl4/c3-1-2(4,5)6/h1H2",QVLAWKAXOMEXPM-UHFFFAOYSA-N,ClCC(Cl)(Cl)Cl,-2.1955,0.00775,2.0,G3,167.85,2.5954,31.01,6.0,0.0,0.0,4.0,0.0,38.0,0.0,0.0,0.0,0.0,0.0,56.31725805,3.168489873,35.30296891
2022,A-3339,"sodium (2R)-2-[(1S)-1,2-dihydroxyethyl]-4-hydroxy-5-oxo-2,5-dihydrofuran-3-olate","InChI=1S/C6H7O6.Na/c7-1-2(8)5-3(9)4(10)6(11)12-5;/h2,5,7-8,10H,1H2;/q-1;+1/t2-,5?;/m0./s1",IFVCRSPJFHGFCG-HXPAKLQESA-N,[Na+].OC[C@H](O)C1OC(=O)[C-](O)C1=O,0.511043092,0.102940365,2.0,G3,198.106,-5.25741,33.1584,13.0,6.0,3.0,7.0,2.0,68.0,0.0,1.0,1.0,1.0,104.06,95.79082076,1.44e-06,217.1700163
2021,A-3337,Pyrithione sodium,InChI=1S/C5H4NOS.Na/c7-6-4-2-1-3-5(6)8;/h1-4H;/q-1;+1,XNRNJIIJLOFJEK-UHFFFAOYSA-N,[Na+].[O-]N1C=CC=CC1=S,0.637012443,0.023559411,2.0,G3,149.15,-1.43251,34.031,9.0,3.0,0.0,4.0,0.0,42.0,1.0,0.0,0.0,1.0,27.99,80.38147471,6.4e-07,234.399646
7234,C-132,"metharbital;  5,5-diethyl-1-methylbarbituric acid","InChI=1S/C9H14N2O3/c1-4-9(5-2)6(12)10-8(14)11(3)7(9)13/h4-5H2,1-3H3,(H,10,12,14)",FWJKNZONDWOGMI-UHFFFAOYSA-N,CCC1(CC)C(=O)NC(=O)N(C)C1=O,-2.1,0.093968375,3.0,G5,198.222,0.501,49.3237,14.0,3.0,1.0,5.0,2.0,78.0,0.0,1.0,1.0,1.0,66.48,82.44721894,3.115227612,294.4321921
915,A-1576,2-(tert-butylperoxy)-2-methylpropane,"InChI=1S/C8H18O2/c1-7(2,3)9-10-8(4,5)6/h1-6H3",LSXWFXONGKSEMY-UHFFFAOYSA-N,CC(C)(C)OOC(C)(C)C,-2.93204037,0.116479815,2.0,G3,146.23,2.5316,41.676,10.0,2.0,0.0,2.0,1.0,62.0,0.0,0.0,0.0,0.0,18.46,63.4502316,3.56300175,80.80566876
9911,H-447,"3,3',4,4'-Tetrachlorobiphenyl  ",InChI=1S/C12H6Cl4/c13-9-3-1-7(5-11(9)15)8-2-4-10(14)12(16)6-8/h1-6H,UQMGJOKDKOLIDP-UHFFFAOYSA-N,ClC1=CC=C(C2=CC=C(Cl)C(Cl)=C2)C=C1Cl,-8.53,0.098908589,3.0,G5,291.992,5.9672,71.918,16.0,0.0,0.0,4.0,1.0,82.0,2.0,0.0,0.0,2.0,0.0,113.7015622,2.502080374,485.0371241
9890,H-353,2-Nitropropane  ,"InChI=1S/C4H9NO2/c1-3-4(2)5(6)7/h4H,3H2,1-2H3",SUGZATOHBPXTDV-UHFFFAOYSA-N,CCC(C)[N+](=O)[O-],-0.62,0.0,1.0,G1,103.121,1.0616,26.7474,7.0,2.0,0.0,3.0,2.0,42.0,0.0,0.0,0.0,0.0,43.14,42.48705309,3.343417059,72.09004635
5812,B-2729,ethidimuron,"InChI=1S/C7H12N4O3S2/c1-4-16(13,14)7-10-9-6(15-7)11(3)5(12)8-2/h4H2,1-3H3,(H,8,12)",KCOCSOWTADCKOL-UHFFFAOYSA-N,CC[S](=O)(=O)c1sc(nn1)N(C)C(=O)NC,-1.945,0.0,1.0,G1,264.332,0.1073,60.4945,16.0,6.0,1.0,9.0,3.0,90.0,1.0,0.0,0.0,1.0,92.26,97.40084283,3.002901042,481.5763083
7494,C-891,n1-(2-chlorophenyl)-2-methylsulfanilamide; 2-chloro-1-(4-amino-2-methylphenylsulfonamido)benzene,"InChI=1S/C13H13ClN2O2S/c1-9-8-10(15)6-7-13(9)19(17,18)16-12-5-3-2-4-11(12)14/h2-8,16H,15H2,1H3",RYGRTXQPJZRDAK-UHFFFAOYSA-N,CC1=C(C=CC(=C1)N)[S](=O)(=O)NC2=C(Cl)C=CC=C2,-5.05,0.0,1.0,G1,296.779,3.03142,77.8519,19.0,3.0,2.0,6.0,3.0,100.0,2.0,0.0,0.0,2.0,72.19,116.8072344,2.410849603,714.3331982
917,A-1578,"sodium 2-[(4-hydroxy-9,10-dioxo-9,10-dihydroanthracen-1-yl)amino]-5-methylbenzene-1-sulfonate","InChI=1S/C21H15NO6S.Na/c1-11-6-7-14(17(10-11)29(26,27)28)22-15-8-9-16(23)19-18(15)20(24)12-4-2-3-5-13(12)21(19)25;/h2-10,22-23H,1H3,(H,26,27,28);/q;+1/p-1",GTKIEPUIFBBXJQ-UHFFFAOYSA-M,[Na+].Cc1ccc(Nc2ccc(O)c3C(=O)c4ccccc4C(=O)c23)c(c1)[S]([O-])(=O)=O,-2.402393281,0.383756067,2.0,G3,431.401,0.12772,103.8387,30.0,7.0,2.0,9.0,3.0,146.0,3.0,0.0,1.0,4.0,123.6,194.3437625,2.56e-06,1317.067043
3667,B-15,5-hydroxytryptamine,"InChI=1S/C10H12N2O/c11-4-3-7-6-12-10-2-1-8(13)5-9(7)10/h1-2,5-6,12-13H,3-4,11H2",QZAYGJVTTNCVMB-UHFFFAOYSA-N,NCCc1c[nH]c2ccc(O)cc12,-0.945,0.0,1.0,G1,176.219,1.3747,52.7219,13.0,2.0,3.0,3.0,2.0,68.0,2.0,0.0,0.0,2.0,62.04,76.18623675,2.576000355,419.7820091
2668,A-4480,Alpha-Methylglucoside,"InChI=1S/C7H14O6/c1-12-7-6(11)5(10)4(9)3(2-8)13-7/h3-11H,2H2,1H3",HOVAGTYPODGVJG-UHFFFAOYSA-N,COC1OC(CO)C(O)C(O)C1O,0.745212549,0.223106275,2.0,G3,194.183,-2.5673,40.7762,13.0,6.0,4.0,6.0,2.0,78.0,0.0,1.0,1.0,1.0,99.38,75.32709803,2.65939048,143.0617569
2516,A-4206,3-phenylbutanal,"InChI=1S/C10H12O/c1-9(7-8-11)10-5-3-2-4-6-10/h2-6,8-9H,7H2,1H3",MYHGOWDLVRDUFA-UHFFFAOYSA-N,CC(CC=O)c1ccccc1,-1.86983286,0.0,1.0,G1,148.205,2.3791,45.538,11.0,1.0,0.0,1.0,3.0,58.0,1.0,0.0,0.0,1.0,17.07,67.05269368,2.680097321,215.5742034
9812,G-819,Methyl hexanoate,"InChI=1S/C7H14O2/c1-3-4-5-6-7(8)9-2/h3-6H2,1-2H3",NUKZAGXMHTUAFE-UHFFFAOYSA-N,CCCCCC(=O)OC,-1.87,0.060357989,2.0,G3,130.187,1.7397,36.158,9.0,2.0,0.0,2.0,4.0,54.0,0.0,0.0,0.0,0.0,26.3,56.20397104,2.973062408,78.98533617
5439,B-2303,n-methyl-n-nitrosoacetamide,InChI=1S/C3H6N2O2/c1-3(6)5(2)4-7/h1-2H3,FFLFWNRFMZRFKU-UHFFFAOYSA-N,CN(N=O)C(C)=O,-0.7684,0.0,1.0,G1,102.093,0.1461,24.239,7.0,3.0,0.0,4.0,1.0,40.0,0.0,0.0,0.0,0.0,49.74,41.05535903,3.551713608,90.93569697
1444,A-2486,3-[[2-(acetyloxy)ethyl][4-[(4-nitrophenyl)azo]phenyl]amino]propiononitrile,"InChI=1S/C19H19N5O4/c1-15(25)28-14-13-23(12-2-11-20)18-7-3-16(4-8-18)21-22-17-5-9-19(10-6-17)24(26)27/h3-10H,2,12-14H2,1H3",QLRDACXDRLGLOC-UHFFFAOYSA-N,CC(=O)OCCN(CCC#N)c1ccc(cc1)N=Nc2ccc(cc2)[N+]([O-])=O,-4.280341584,0.0,1.0,G1,381.392,4.29338,102.7904,28.0,8.0,0.0,9.0,9.0,144.0,2.0,0.0,0.0,2.0,121.19,161.5703264,2.031454147,872.6921528
5875,B-2800,sulprofos,"InChI=1S/C12H19O2PS3/c1-4-10-18-15(16,13-5-2)14-11-6-8-12(17-3)9-7-11/h6-9H,4-5,10H2,1-3H3",JXHJNEJVUNHLKO-UHFFFAOYSA-N,CCCS[P](=S)(OCC)Oc1ccc(SC)cc1,-6.0171,0.0,1.0,G1,322.457,5.1915,87.511,18.0,5.0,0.0,6.0,8.0,102.0,1.0,0.0,0.0,1.0,18.46,123.1362088,2.718332394,394.8139258
5556,B-2436,3-(2-methylphenoxy)pyridazine,"InChI=1S/C11H10N2O/c1-9-5-2-3-6-10(9)14-11-7-4-8-12-13-11/h2-8H,1H3",DNPSYFHJYIRREW-UHFFFAOYSA-N,Cc1ccccc1Oc2cccnn2,-1.969,0.0,1.0,G1,186.214,2.57732,53.285,14.0,3.0,0.0,3.0,2.0,70.0,2.0,0.0,0.0,2.0,35.01,82.3747342,2.236958884,414.6425251
7259,C-194,vinbarbital;  5-ethyl-5-(1-methyl-1-butenyl)barbituric  acid,"InChI=1S/C11H16N2O3/c1-4-6-7(3)11(5-2)8(14)12-10(16)13-9(11)15/h6H,4-5H2,1-3H3,(H2,12,13,14,15,16)/b7-6+",RAFOHKSPUDGZPR-VOTSOKGWSA-N,CC/C=C(C)/C1(CC)C(=O)NC(=O)NC1=O,-2.31,0.0,1.0,G1,224.26,1.1051,58.4534,16.0,3.0,2.0,5.0,3.0,88.0,0.0,1.0,1.0,1.0,75.27,94.27752865,3.203780593,351.4259648
8082,C-1993,"n1,n1-diethylsulfanilamide","InChI=1S/C10H16N2O2S/c1-3-12(4-2)15(13,14)10-7-5-9(11)6-8-10/h5-8H,3-4,11H2,1-2H3",LTFVELCIFWEGGA-UHFFFAOYSA-N,CCN(CC)[S](=O)(=O)C1=CC=C(N)C=C1,-2.63,0.0,1.0,G1,228.317,1.2993,60.9612,15.0,3.0,1.0,5.0,4.0,84.0,1.0,0.0,0.0,1.0,63.4,90.75167184,3.105617107,407.5534583
7768,C-1446,methyl thiabendazole-1-carboxylate; 1-methoxycarbonylthiabendazole; 1-methoxycarbonyl-2-(4-thiazolyl)benzimidazole,"InChI=1S/C12H9N3O2S/c1-17-12(16)15-10-5-3-2-4-8(10)14-11(15)9-6-18-7-13-9/h2-7H,1H3",XOLFCAOGEVVBST-UHFFFAOYSA-N,COC(=O)[N]1C2=C(C=CC=C2)N=C1C3=CSC=N3,-3.11,0.0,1.0,G1,259.29,2.7743,68.644,18.0,6.0,0.0,6.0,1.0,90.0,3.0,0.0,0.0,3.0,57.01,106.6739046,2.334722675,703.267102
3633,A-6071,"2-(2H-1,2,3-benzotriazol-2-yl)-4,6-bis(2-methylbutan-2-yl)phenol","InChI=1S/C22H29N3O/c1-7-21(3,4)15-13-16(22(5,6)8-2)20(26)19(14-15)25-23-17-11-9-10-12-18(17)24-25/h9-14,26H,7-8H2,1-6H3",ZMWRRFHBXARRRT-UHFFFAOYSA-N,CCC(C)(C)c1cc(n2nc3ccccc3n2)c(O)c(c1)C(C)(C)CC,-8.545917916,0.0,1.0,G1,351.494,5.5013,107.1638,26.0,4.0,1.0,4.0,5.0,138.0,3.0,0.0,0.0,3.0,50.94,155.4091518,2.292866942,904.710398
6831,B-4088,"2,3,4,5,6-pcb",InChI=1S/C12H5Cl5/c13-8-7(6-4-2-1-3-5-6)9(14)11(16)12(17)10(8)15/h1-5H,GGMPTLAAIUQMIE-UHFFFAOYSA-N,Clc1c(Cl)c(Cl)c(c2ccccc2)c(Cl)c1Cl,-7.9107,0.0,1.0,G1,326.437,6.6206,76.928,17.0,0.0,0.0,5.0,1.0,88.0,2.0,0.0,0.0,2.0,0.0,124.0048285,2.795373917,533.8489384
6352,B-3330,"malonamide, 2,2-dihydroxy-n,n'diphenyl-","InChI=1S/C15H14N2O4/c18-13(16-11-7-3-1-4-8-11)15(20,21)14(19)17-12-9-5-2-6-10-12/h1-10,20-21H,(H,16,18)(H,17,19)",LBGDJUYHCRTMQV-UHFFFAOYSA-N,OC(O)(C(=O)Nc1ccccc1)C(=O)Nc2ccccc2,-2.4568,0.0,1.0,G1,286.287,0.9447,77.312,21.0,4.0,4.0,6.0,4.0,108.0,2.0,0.0,0.0,2.0,98.66,120.5945597,2.058195754,571.1365815
389,A-665,"2,2-bis[(prop-2-enoyloxy)methyl]butyl prop-2-enoate","InChI=1S/C15H20O6/c1-5-12(16)19-9-15(8-4,10-20-13(17)6-2)11-21-14(18)7-3/h5-7H,1-3,8-11H2,4H3",DAKWPKUUDNSNPN-UHFFFAOYSA-N,CCC(COC(=O)C=C)(COC(=O)C=C)COC(=O)C=C,-2.772789495,0.0,1.0,G1,296.319,1.5704,76.192,21.0,6.0,0.0,6.0,10.0,116.0,0.0,0.0,0.0,0.0,78.9,123.6048335,4.872529375,364.066242
1419,A-2455,"Glycerides, C16-22","InChI=1S/C19H38O4/c1-2-3-4-5-6-7-8-9-10-11-12-13-14-15-19(22)23-17-18(21)16-20/h18,20-21H,2-17H2,1H3",QHZLMUACJMDIAE-UHFFFAOYSA-N,CCCCCCCCCCCCCCCC(=O)OCC(O)CO,-4.726791601,0.0,1.0,G1,330.509,4.3641,94.3636,23.0,4.0,2.0,4.0,17.0,138.0,0.0,0.0,0.0,0.0,66.76,142.1717439,3.138965743,255.7541676
9344,F-680,"2,2-dihydroxy-N,N'-bis(4-methylphenyl)propanediamide","InChI=1S/C17H18N2O4/c1-11-3-7-13(8-4-11)18-15(20)17(22,23)16(21)19-14-9-5-12(2)6-10-14/h3-10,22-23H,1-2H3,(H,18,20)(H,19,21)",YHKFVRLNISKKFY-UHFFFAOYSA-N,CC1=CC=C(NC(=O)C(O)(O)C(=O)NC2=CC=C(C)C=C2)C=C1,-3.1,0.0,1.0,G1,314.341,1.56154,86.786,23.0,4.0,4.0,6.0,4.0,120.0,2.0,0.0,0.0,2.0,98.66,133.324444,2.059045742,644.8781556
7243,C-154,"5,5-diisopropylbarbituric acid","InChI=1S/C10H16N2O3/c1-5(2)10(6(3)4)7(13)11-9(15)12-8(10)14/h5-6H,1-4H3,(H2,11,12,13,14,15)",NSQYIEOSFPLTJA-UHFFFAOYSA-N,CC(C)C1(C(C)C)C(=O)NC(=O)NC1=O,-2.77,0.0,1.0,G1,212.249,0.6508,53.7904,15.0,3.0,2.0,5.0,2.0,84.0,0.0,1.0,1.0,1.0,75.27,88.60218957,3.214800418,290.6291905
2698,A-4517,2-methylpropan-2-ol,"InChI=1S/C4H10O/c1-4(2,3)5/h5H,1-3H3",DKGAVHZHDRPRBM-UHFFFAOYSA-N,CC(C)(C)O,1.130047012,0.0,1.0,G1,74.123,0.7772,21.9718,5.0,1.0,1.0,1.0,0.0,32.0,0.0,0.0,0.0,0.0,20.23,32.62831112,3.023715784,19.11941548