,ID,Name,InChI,InChIKey,SMILES,Solubility,SD,Ocurrences,Group,MolWt,MolLogP,MolMR,HeavyAtomCount,NumHAcceptors,NumHDonors,NumHeteroatoms,NumRotatableBonds,NumValenceElectrons,NumAromaticRings,NumSaturatedRings,NumAliphaticRings,RingCount,TPSA,LabuteASA,BalabanJ,BertzCT
4274,B-953,2-cyanoguanidine,"InChI=1S/C2H4N4/c3-1-6-2(4)5/h(H4,4,5,6)",QGBSISYHAICWAH-UHFFFAOYSA-N,NC(N)=NC#N,-0.3087,0.0,1.0,G1,84.082,-1.25912,21.4228,6.0,2.0,2.0,4.0,0.0,32.0,0.0,0.0,0.0,0.0,88.19,35.0718767,3.507222854,92.60593782
1181,A-2033,bis(3-methylbutyl) phthalate,"InChI=1S/C18H26O4/c1-13(2)9-11-21-17(19)15-7-5-6-8-16(15)18(20)22-12-10-14(3)4/h5-8,13-14H,9-12H2,1-4H3",JANBFCARANRIKJ-UHFFFAOYSA-N,CC(C)CCOC(=O)c1ccccc1C(=O)OCCC(C)C,-5.444898911,0.0,1.0,G1,306.402,4.0924,85.917,22.0,4.0,0.0,4.0,8.0,122.0,1.0,0.0,0.0,1.0,52.6,132.3608432,2.676311048,446.6154526
4921,B-1728,chlornitrofen,InChI=1S/C12H6Cl3NO3/c13-7-5-10(14)12(11(15)6-7)19-9-3-1-8(2-4-9)16(17)18/h1-6H,XQNAUQUKWRBODG-UHFFFAOYSA-N,[O-][N+](=O)c1ccc(Oc2c(Cl)cc(Cl)cc2Cl)cc1,-5.6201,0.0,1.0,G1,318.543,5.3473,74.6424,19.0,3.0,0.0,7.0,3.0,98.0,2.0,0.0,0.0,2.0,52.37,123.164817,2.285981646,605.6118892
6701,B-3834,2-chloropropane,"InChI=1S/C3H7Cl/c1-3(2)4/h3H,1-2H3",ULYZAYCEDJDHCC-UHFFFAOYSA-N,CC(C)Cl,-1.4037,0.0,1.0,G1,78.542,1.6336,20.989,4.0,0.0,0.0,1.0,0.0,26.0,0.0,0.0,0.0,0.0,0.0,31.77240148,2.323790008,8.0
9081,F-268,"2,2,2-Trifluoro-1-phenylethanone","InChI=1S/C8H5F3O/c9-8(10,11)7(12)6-4-2-1-3-5-6/h1-5H",KZJRKRQSDZGHEC-UHFFFAOYSA-N,O=C(C1=CC=CC=C1)C(F)(F)F,-1.16,0.0,1.0,G1,174.121,2.4316,36.8275,12.0,1.0,0.0,4.0,1.0,64.0,1.0,0.0,0.0,1.0,17.07,66.81941566,2.944341945,276.1044889
9342,F-678,"Ethyl (2-{[(4-aminophenyl)sulfonyl]amino}-4-methyl-1,3-thiazol-5-yl)acetate","InChI=1S/C14H17N3O4S2/c1-3-21-13(18)8-12-9(2)16-14(22-12)17-23(19,20)11-6-4-10(15)5-7-11/h4-7H,3,8,15H2,1-2H3,(H,16,17)",BCUDENMQYSKCLW-UHFFFAOYSA-N,CCOC(=O)CC1=C(C)N=C(NS(=O)(=O)C2=CC=C(N)C=C2)S1,-2.88,0.0,1.0,G1,355.441,1.94012,88.8509,23.0,7.0,2.0,9.0,6.0,124.0,2.0,0.0,0.0,2.0,111.38,138.0988153,2.1670681,797.929914
4071,B-680,2-aminoanthraquinone,"InChI=1S/C14H9NO2/c15-8-5-6-11-12(7-8)14(17)10-4-2-1-3-9(10)13(11)16/h1-7H,15H2",XOGPDSATLSAZEK-UHFFFAOYSA-N,Nc1ccc2C(=O)c3ccccc3C(=O)c2c1,-6.1366,0.0,1.0,G1,223.231,2.0442,64.1614,17.0,3.0,1.0,3.0,0.0,82.0,2.0,0.0,1.0,3.0,60.16,97.8754853,2.33049094,659.0218278
6498,B-3485,metconazole,"InChI=1S/C17H22ClN3O/c1-16(2)8-7-14(9-13-3-5-15(18)6-4-13)17(16,22)10-21-12-19-11-20-21/h3-6,11-12,14,22H,7-10H2,1-2H3",XWPZUHJBOLQNMN-UHFFFAOYSA-N,CC1(C)CCC(Cc2ccc(Cl)cc2)C1(O)Cn3cncn3,-4.3288,0.0,1.0,G1,319.836,3.3415,86.6328,22.0,4.0,1.0,5.0,4.0,118.0,2.0,1.0,1.0,3.0,50.94,135.6915266,1.838493961,623.8634243
9261,F-588,"2-acetamido-3-(3,4-dichlorophenyl)sulfanylpropanoic acid","InChI=1S/C11H11Cl2NO3S/c1-6(15)14-10(11(16)17)5-18-7-2-3-8(12)9(13)4-7/h2-4,10H,5H2,1H3,(H,14,15)(H,16,17)",JYWAYDDGOPHFIS-UHFFFAOYSA-N,CC(=O)NC(CSC1=CC(Cl)=C(Cl)C=C1)C(=O)O,-2.89,0.0,1.0,G1,308.186,2.6748,72.4265,18.0,3.0,2.0,7.0,5.0,98.0,1.0,0.0,0.0,1.0,66.4,118.6528963,2.635165496,467.6015891
9599,F-1055,butyl 2-(6-methoxynaphthalen-2-yl)propanoate,"InChI=1S/C18H22O3/c1-4-5-10-21-18(19)13(2)14-6-7-16-12-17(20-3)9-8-15(16)11-14/h6-9,11-13H,4-5,10H2,1-3H3",VIKFUEUFSFCFQU-UHFFFAOYSA-N,CCCCOC(=O)C(C)C1=CC=C2C=C(OC)C=CC2=C1,-7.53,0.0,1.0,G1,286.371,4.2952,84.782,21.0,3.0,0.0,3.0,6.0,112.0,2.0,0.0,0.0,2.0,35.53,125.4212171,2.158171092,618.8895902
3344,A-5500,"2-hydroxy-1-{3-[4-(2-hydroxy-2-methylpropanoyl)phenyl]-1,1,3-trimethyl-2,3-dihydro-1H-inden-5-yl}-2-methylpropan-1-one","InChI=1S/C26H32O4/c1-23(2)15-26(7,18-11-8-16(9-12-18)21(27)24(3,4)29)20-14-17(10-13-19(20)23)22(28)25(5,6)30/h8-14,29-30H,15H2,1-7H3",AVZGRVCEWBPUNN-UHFFFAOYSA-N,CC(C)(O)C(=O)c1ccc(cc1)C2(C)CC(C)(C)c3ccc(cc23)C(=O)C(C)(C)O,-5.963849488,0.0,1.0,G1,408.538,4.5811,118.2376,30.0,4.0,2.0,4.0,5.0,160.0,2.0,0.0,1.0,3.0,74.6,178.5033675,2.094093121,1000.809608
8091,C-2011,ranitidine,"InChI=1S/C13H22N4O3S/c1-14-13(9-17(18)19)15-6-7-21-10-12-5-4-11(20-12)8-16(2)3/h4-5,9,14-15H,6-8,10H2,1-3H3/b13-9-",VMXUWOKSQNHOCA-LCYFTJDESA-N,CNC(/NCCSCC1=CC=C(CN(C)C)O1)=C/[N+]([O-])=O,-2.5,0.0,1.0,G1,314.411,1.459,84.4008,21.0,7.0,2.0,8.0,10.0,118.0,1.0,0.0,0.0,1.0,83.58,128.4562522,2.218277243,473.7363587
6465,B-3450,"propanamide, 2-[[(benzoyloxy)acetyl]amino]-","InChI=1S/C12H14N2O4/c1-8(11(13)16)14-10(15)7-18-12(17)9-5-3-2-4-6-9/h2-6,8H,7H2,1H3,(H2,13,16)(H,14,15)",GUNGCOIXSOZDCM-UHFFFAOYSA-N,CC(NC(=O)COC(=O)c1ccccc1)C(N)=O,-2.7172,0.0,1.0,G1,250.254,-0.1666,63.5236,18.0,4.0,2.0,6.0,5.0,96.0,1.0,0.0,0.0,1.0,98.49,104.1089202,2.395000282,444.6504494
1835,A-3001,"sodium hydrogen 4-amino-5-hydroxynaphthalene-2,7-disulfonate","InChI=1S/C10H9NO7S2.Na/c11-8-3-6(19(13,14)15)1-5-2-7(20(16,17)18)4-9(12)10(5)8;/h1-4,12H,11H2,(H,13,14,15)(H,16,17,18);/q;+1/p-1",QPILZZVXGUNELN-UHFFFAOYSA-M,[Na+].Nc1cc(cc2cc(cc(O)c12)[S]([O-])(=O)=O)[S](O)(=O)=O,-1.476228892,0.0,1.0,G1,341.298,-2.7176,67.803,21.0,7.0,3.0,11.0,2.0,108.0,2.0,0.0,0.0,2.0,157.82,141.9178637,2.2e-06,849.312021
7354,C-533,caffeine,"InChI=1S/C8H10N4O2/c1-10-4-9-6-5(10)7(13)12(3)8(14)11(6)2/h4H,1-3H3",RYYVLZVUVIJVGH-UHFFFAOYSA-N,C[N]1C=NC2=C1C(=O)N(C)C(=O)N2C,-0.91,0.034420164,4.0,G5,194.194,-1.0293,51.196,14.0,6.0,0.0,6.0,0.0,74.0,2.0,0.0,0.0,2.0,61.82,79.02895702,3.221281081,616.528592
8715,E-203,"2,2',4,4'5,5'-PCB",InChI=1S/C12H4Cl6/c13-7-3-11(17)9(15)1-5(7)6-2-10(16)12(18)4-8(6)14/h1-4H,MVWHGTYKUMDIHL-UHFFFAOYSA-N,c1c(Cl)c(Cl)cc(Cl)c1c2c(Cl)cc(Cl)c(Cl)c2,-8.56,0.02039695,3.0,G5,360.882,7.274,81.938,18.0,0.0,0.0,6.0,1.0,94.0,2.0,0.0,0.0,2.0,0.0,134.3080947,2.691548108,564.9500799
4618,B-1364,4-dimethylamino benzoic acid,"InChI=1S/C9H11NO2/c1-10(2)8-5-3-7(4-6-8)9(11)12/h3-6H,1-2H3,(H,11,12)",YDIYEOMDOWUDTJ-UHFFFAOYSA-N,CN(C)c1ccc(cc1)C(O)=O,-3.3979,0.0,1.0,G1,165.192,1.4508,47.7283,12.0,2.0,1.0,3.0,2.0,64.0,1.0,0.0,0.0,1.0,40.54,71.24181899,2.9291456,277.0849389
4199,B-856,"1,3-bis(2-chloroet)-1-nitrosourea","InChI=1S/C5H9Cl2N3O2/c6-1-3-8-5(11)10(9-12)4-2-7/h1-4H2,(H,8,11)",DLGOEMSEDOSKAD-UHFFFAOYSA-N,ClCCNC(=O)N(CCCl)N=O,-1.7285,0.0,1.0,G1,214.052,1.157,47.3397,12.0,3.0,1.0,7.0,5.0,70.0,0.0,0.0,0.0,0.0,61.77,79.9416379,3.76615174,155.6287586
7658,C-1248,isobutyl  5-fluorouracil-1-carboxylate;  1-isobutoxycarbonyl-5-fluorouracil,"InChI=1S/C9H11FN2O4/c1-5(2)4-16-9(15)12-3-6(10)7(13)11-8(12)14/h3,5H,4H2,1-2H3,(H,11,13,14)",DXDPKLIQOAVOAM-UHFFFAOYSA-N,CC(C)COC(=O)N1C=C(F)C(=O)NC1=O,-1.89,0.0,1.0,G1,230.195,0.3164,52.8647,16.0,5.0,1.0,7.0,2.0,88.0,1.0,0.0,0.0,1.0,81.16,89.66902807,2.963654833,502.9658288
909,A-1562,4-methyl-1-(propan-2-yl)cyclohex-3-en-1-ol,"InChI=1S/C10H18O/c1-8(2)10(11)6-4-9(3)5-7-10/h4,8,11H,5-7H2,1-3H3",WRYLYDPHFGVWKC-UHFFFAOYSA-N,CC(C)C1(O)CCC(=CC1)C,-1.94099707,0.32998735,2.0,G3,154.253,2.5037,47.3958,11.0,1.0,1.0,1.0,1.0,64.0,0.0,0.0,1.0,1.0,20.23,69.12252962,2.637067423,169.7115907
5380,B-2236,"2-cyclohexene-1,2-dicarboxylic acid, 1-methyl-","InChI=1S/C9H12O4/c1-9(8(12)13)5-3-2-4-6(9)7(10)11/h4H,2-3,5H2,1H3,(H,10,11)(H,12,13)",PCVSTKYNEXPKMI-UHFFFAOYSA-N,CC1(CCCC=C1C(O)=O)C(O)=O,-1.9642,0.0,1.0,G1,184.191,1.2722,45.3126,13.0,2.0,2.0,4.0,2.0,72.0,0.0,0.0,1.0,1.0,74.6,75.87486546,3.077200141,279.339289
8440,C-2516,"2-sulfamoyl-5-(2,4,6-trimethylbenzenesulfonylimido)-4-methyl-1,3,4-thiadiazoline","InChI=1S/C12H16N4O4S3/c1-7-5-8(2)10(9(3)6-7)23(19,20)15-11-16(4)14-12(21-11)22(13,17)18/h5-6H,1-4H3,(H2,13,17,18)",QSVMFFQOVYIPQM-UHFFFAOYSA-N,CN1N=C(SC1=N[S](=O)(=O)C2=C(C)C=C(C)C=C2C)[S](N)(=O)=O,-3.0,0.0,1.0,G1,376.485,0.34386,85.86,23.0,7.0,1.0,11.0,3.0,126.0,2.0,0.0,0.0,2.0,124.48,137.963115,2.705214022,1023.210333
7199,C-18,alpha-terpineol,"InChI=1S/C10H18O/c1-8-4-6-9(7-5-8)10(2,3)11/h4,9,11H,5-7H2,1-3H3",WUOACPNHFRMFPN-UHFFFAOYSA-N,CC1=CCC(CC1)C(C)(C)O,-1.91,0.0092,2.0,G3,154.253,2.5037,47.3958,11.0,1.0,1.0,1.0,1.0,64.0,0.0,0.0,1.0,1.0,20.23,69.12252962,2.538575736,162.2018156
7529,C-962,n1-(2-nitrophenyl)-2-methylsulfanilamide;  2-nitro-1-(4-amino-2-methylphenylsulfonamido)benzene,"InChI=1S/C13H13N3O4S/c1-9-8-10(14)6-7-13(9)21(19,20)15-11-4-2-3-5-12(11)16(17)18/h2-8,15H,14H2,1H3",HZKCDBKRNMDOJB-UHFFFAOYSA-N,CC1=C(C=CC(=C1)N)[S](=O)(=O)NC2=C(C=CC=C2)[N+]([O-])=O,-4.51,0.0,1.0,G1,307.331,2.28622,79.4963,21.0,5.0,2.0,8.0,4.0,110.0,2.0,0.0,0.0,2.0,115.33,121.1569439,2.450878529,802.8137136
6430,B-3414,"glycine, n-[(benzoyloxy)acetyl]-n-methyl-","InChI=1S/C12H13NO5/c1-13(7-11(15)16)10(14)8-18-12(17)9-5-3-2-4-6-9/h2-6H,7-8H2,1H3,(H,15,16)",SHYSSTOSYAOGMS-UHFFFAOYSA-N,CN(CC(O)=O)C(=O)COC(=O)c1ccccc1,-2.254,0.0,1.0,G1,251.238,0.3864,61.9973,18.0,4.0,1.0,6.0,5.0,96.0,1.0,0.0,0.0,1.0,83.91,103.7732348,2.435837272,443.0408089
1947,A-3210,trichloromethane,InChI=1S/CHCl3/c2-1(3)4/h1H,HEDRZPFGACZZDS-UHFFFAOYSA-N,ClC(Cl)Cl,-1.173834312,0.018214633,2.0,G3,119.378,1.9864,21.347,4.0,0.0,0.0,3.0,0.0,26.0,0.0,0.0,0.0,0.0,0.0,39.64904971,2.323790008,8.0
8998,F-135,hydroxy-[4-[hydroxy(oxo)azaniumyl]oxybutoxy]-oxoazanium,"InChI=1S/C4H10N2O6/c7-5(8)11-3-1-2-4-12-6(9)10/h1-4H2,(H,7,8)(H,9,10)/q+2",YGKFPOVIXWPUAJ-UHFFFAOYSA-N,C(CCO[N+](=O)O)CO[N+](=O)O,-1.68,0.0,1.0,G1,182.132,-0.034,31.9658,12.0,4.0,2.0,8.0,7.0,70.0,0.0,0.0,0.0,0.0,99.08,67.27519627,3.007305636,141.6270751
5630,B-2520,"phenol, 4-amino-2,6-dinitro-","InChI=1S/C6H5N3O5/c7-3-1-4(8(11)12)6(10)5(2-3)9(13)14/h1-2,10H,7H2",TTXPIURLJOPGTE-UHFFFAOYSA-N,Nc1cc(c(O)c(c1)[N+]([O-])=O)[N+]([O-])=O,-2.3853,0.0,1.0,G1,199.122,0.7908,45.828,14.0,6.0,2.0,8.0,2.0,74.0,1.0,0.0,0.0,1.0,132.53,76.87147901,3.472584005,380.9231577
6121,B-3075,"benzenemethanol, 2,3(or 3,4)-dichloro-, methyl c","InChI=1S/C9H9Cl2NO2/c1-12-9(13)14-5-6-3-2-4-7(10)8(6)11/h2-4H,5H2,1H3,(H,12,13)",SESJCOBCXSACPH-UHFFFAOYSA-N,CNC(=O)OCc1cccc(Cl)c1Cl,-3.1389,0.0,1.0,G1,234.082,2.8494,55.7067,14.0,2.0,1.0,5.0,2.0,76.0,1.0,0.0,0.0,1.0,38.33,91.95769143,2.675591918,341.583881
4970,B-1783,n-decylamine,"InChI=1S/C10H23N/c1-2-3-4-5-6-7-8-9-10-11/h2-11H2,1H3",MHZGKXUYDGKKIU-UHFFFAOYSA-N,CCCCCCCCCCN,-2.4564,0.0,1.0,G1,157.301,3.0858,51.6644,11.0,1.0,1.0,1.0,8.0,68.0,0.0,0.0,0.0,0.0,26.02,71.36362075,2.690915527,53.89311688
7355,C-534,"oxamniquine;  6-hydroxymethyl-2-isopropylaminomethyl-7-nitro-1,2,3,4-tetrahydroquinoline","InChI=1S/C14H21N3O3/c1-9(2)15-7-12-4-3-10-5-11(8-18)14(17(19)20)6-13(10)16-12/h5-6,9,12,15-16,18H,3-4,7-8H2,1-2H3",XCGYUJZMCCFSRP-UHFFFAOYSA-N,CC(C)NCC1CCC2=C(N1)C=C(C(=C2)CO)[N+]([O-])=O,-2.97,0.0,1.0,G1,279.34,1.8118,77.8896,20.0,5.0,3.0,6.0,5.0,110.0,1.0,0.0,1.0,2.0,87.43,117.8920427,2.184428439,502.68265
4769,B-1550,3-hexyne,"InChI=1S/C6H10/c1-3-5-6-4-2/h3-4H2,1-2H3",DQQNMIPXXNPGCV-UHFFFAOYSA-N,CCC#CCC,-2.1675,0.08875,2.0,G3,82.146,1.8098,28.358,6.0,0.0,0.0,0.0,0.0,34.0,0.0,0.0,0.0,0.0,0.0,39.56318699,2.898667618,53.8428331
543,A-973,2-tert-butyl-5-methylphenol,"InChI=1S/C11H16O/c1-8-5-6-9(10(12)7-8)11(2,3)4/h5-7,12H,1-4H3",XOUQAVYLRNOXDO-UHFFFAOYSA-N,Cc1ccc(c(O)c1)C(C)(C)C,-2.672674663,0.0,1.0,G1,164.248,2.99812,51.5438,12.0,1.0,1.0,1.0,0.0,66.0,1.0,0.0,0.0,1.0,20.23,74.05034744,3.189211512,281.5458536
1936,A-3195,Pyromellitic dianhydride,InChI=1S/C10H2O6/c11-7-3-1-4-6(10(14)16-8(4)12)2-5(3)9(13)15-7/h1-2H,ANSXAPJVJOKRDJ-UHFFFAOYSA-N,O=C1OC(=O)c2cc3C(=O)OC(=O)c3cc12,-1.406221724,0.006743469,2.0,G3,218.12,-0.5046,53.438,16.0,6.0,0.0,6.0,0.0,78.0,3.0,0.0,0.0,3.0,94.56,85.02947911,2.79863957,769.6521154
4498,B-1217,"1h-imidazole-4,5-dicarboxylic acid","InChI=1S/C5H4N2O4/c8-4(9)2-3(5(10)11)7-1-6-2/h1H,(H,6,7)(H,8,9)(H,10,11)",ZEVWQFWTGHFIDH-UHFFFAOYSA-N,OC(=O)c1[nH]cnc1C(O)=O,-2.4944,0.0,1.0,G1,156.097,-0.1939,32.5063,11.0,3.0,3.0,6.0,2.0,58.0,1.0,0.0,0.0,1.0,103.28,60.50160745,3.157704006,274.6859916
398,A-677,"tributyl benzene-1,2,4-tricarboxylate","InChI=1S/C21H30O6/c1-4-7-12-25-19(22)16-10-11-17(20(23)26-13-8-5-2)18(15-16)21(24)27-14-9-6-3/h10-11,15H,4-9,12-14H2,1-3H3",RJIFVNWOLLIBJV-UHFFFAOYSA-N,CCCCOC(=O)c1ccc(C(=O)OCCCC)c(c1)C(=O)OCCCC,-4.807173711,0.0,1.0,G1,378.465,4.5573,102.0135,27.0,6.0,0.0,6.0,12.0,150.0,1.0,0.0,0.0,1.0,78.9,160.7307368,3.008726531,623.097889
5435,B-2299,"propanoic acid, 3,3'-diselenobis-","InChI=1S/C6H10O4Se2/c7-5(8)1-3-11-12-4-2-6(9)10/h1-4H2,(H,7,8)(H,9,10)",AXJLEYVRLPNPGF-UHFFFAOYSA-N,OC(=O)CC[Se][Se]CCC(O)=O,-2.2681,0.0,1.0,G1,304.062,0.0958,45.6276,12.0,2.0,2.0,6.0,7.0,70.0,0.0,0.0,0.0,0.0,74.6,81.58894957,3.007305636,141.6270751
112,A-189,"4,4,13,13-tetraethoxy-3,14-dioxa-8,9-dithia-4,13-disilahexadecane","InChI=1S/C18H42O6S2Si2/c1-7-19-27(20-8-2,21-9-3)17-13-15-25-26-16-14-18-28(22-10-4,23-11-5)24-12-6/h7-18H2,1-6H3",FBBATURSCRIBHN-UHFFFAOYSA-N,CCO[Si](CCCSSCCC[Si](OCC)(OCC)OCC)(OCC)OCC,-5.676541809,0.0,1.0,G1,474.834,5.2448,125.028,28.0,8.0,0.0,10.0,21.0,170.0,0.0,0.0,0.0,0.0,55.38,182.7726662,4.137940541,289.9984128
3152,A-5232,2-acrylamido-2-methylpropanesulphonic acid,"InChI=1S/C7H13NO4S.Na/c1-4-6(9)8-7(2,3)5-13(10,11)12;/h4H,1,5H2,2-3H3,(H,8,9)(H,10,11,12);/q;+1/p-1",FWFUWXVFYKCSQA-UHFFFAOYSA-M,[Na+].CC(C)(C[S]([O-])(=O)=O)NC(=O)C=C,0.338692866,0.0,1.0,G1,229.233,-3.3836,46.9829,14.0,4.0,1.0,7.0,4.0,76.0,0.0,0.0,0.0,0.0,86.3,105.9927206,0.0,309.6514845
8302,C-2310,"5-[(n,n-dimethylaminosulfonyl)imido]-4-methyl-2-aminosulfonyl-1,3,4-thiadiazoline","InChI=1S/C5H11N5O4S3/c1-9(2)17(13,14)8-4-10(3)7-5(15-4)16(6,11)12/h1-3H3,(H2,6,11,12)",IXUHQPKKIHYXSU-UHFFFAOYSA-N,CN(C)[S](=O)(=O)N=C1SC(=NN1C)[S](N)(=O)=O,-2.7,0.0,1.0,G1,301.375,-2.1639,60.628,17.0,7.0,1.0,12.0,3.0,98.0,1.0,0.0,0.0,1.0,127.72,102.4362899,3.462678991,679.3783715
1253,A-2169,"2-ethyl-9,10-dihydroanthracene-9,10-dione","InChI=1S/C16H12O2/c1-2-10-7-8-13-14(9-10)16(18)12-6-4-3-5-11(12)15(13)17/h3-9H,2H2,1H3",SJEBAWHUJDUKQK-UHFFFAOYSA-N,CCc1ccc2C(=O)c3ccccc3C(=O)c2c1,-5.984242497,0.0,1.0,G1,236.27,3.0244,69.127,18.0,2.0,0.0,2.0,1.0,88.0,2.0,0.0,1.0,3.0,34.14,105.2654788,2.268429126,668.5472201
6378,B-3358,"hexanamide, 2-ethylidene-","InChI=1S/C8H15NO/c1-3-5-6-7(4-2)8(9)10/h4H,3,5-6H2,1-2H3,(H2,9,10)",CBBQHYFBEMUJII-UHFFFAOYSA-N,CCCCC(=CC)C(N)=O,-1.3717,0.0,1.0,G1,141.214,1.6082,42.4764,10.0,1.0,1.0,2.0,4.0,58.0,0.0,0.0,0.0,0.0,43.09,62.10565559,3.744392672,138.1930176
2908,A-4870,"1,1'-[methylenebis(oxy)]dibutane","InChI=1S/C9H20O2/c1-3-5-7-10-9-11-8-6-4-2/h3-9H2,1-2H3",QLCJOAMJPCOIDI-UHFFFAOYSA-N,CCCCOCOCCCC,-2.806877,0.025304997,2.0,G3,160.257,2.5773,46.587,11.0,2.0,0.0,2.0,8.0,68.0,0.0,0.0,0.0,0.0,18.46,69.8858784,2.690915527,56.58307282
4968,B-1781,butylate,"InChI=1S/C11H23NOS/c1-6-14-11(13)12(7-9(2)3)8-10(4)5/h9-10H,6-8H2,1-5H3",BMTAFVWTTFSTOG-UHFFFAOYSA-N,CCSC(=O)N(CC(C)C)CC(C)C,-3.684,0.0,1.0,G1,217.378,3.4735,64.777,14.0,2.0,0.0,3.0,5.0,84.0,0.0,0.0,0.0,0.0,20.31,92.43313797,4.151457931,158.6704666
7218,C-75,isosorbide  dinitrate,"InChI=1S/C6H8N2O8/c9-7(10)15-3-1-13-6-4(16-8(11)12)2-14-5(3)6/h3-6H,1-2H2",MOYKHGMNXAOIAT-UHFFFAOYSA-N,[O-][N+](=O)OC1COC2C(COC12)O[N+]([O-])=O,-2.63,0.0,1.0,G1,236.136,-1.0622,43.2148,16.0,8.0,0.0,10.0,4.0,90.0,0.0,2.0,2.0,2.0,123.2,88.22050865,1.948118235,278.9036607
2558,A-4278,"disodium 1-amino-9,10-dihydro-9,10-dioxo-4-[[4-[[2-(sulphonatooxy)ethyl]sulphonyl]phenyl]amino]anthracene-2-sulphonate","InChI=1S/C22H18N2O11S3.2Na/c23-20-17(37(29,30)31)11-16(18-19(20)22(26)15-4-2-1-3-14(15)21(18)25)24-12-5-7-13(8-6-12)36(27,28)10-9-35-38(32,33)34;;/h1-8,11,24H,9-10,23H2,(H,29,30,31)(H,32,33,34);;/q;2*+1/p-2",JALBGZPFNQMHSM-UHFFFAOYSA-L,[Na+].[Na+].Nc1c2C(=O)c3ccccc3C(=O)c2c(Nc4ccc(cc4)[S](=O)(=O)CCO[S]([O-])(=O)=O)cc1[S]([O-])(=O)=O,-0.563962397,0.010371746,3.0,G5,626.554,-5.0496,129.5513,40.0,13.0,2.0,18.0,8.0,200.0,3.0,0.0,1.0,4.0,229.96,273.2443447,2.8e-06,1826.08718
5753,B-2654,chlormephos,"InChI=1S/C5H12ClO2PS2/c1-3-7-9(10,8-4-2)11-5-6/h3-5H2,1-2H3",QGTYWWGEWOBMAK-UHFFFAOYSA-N,CCO[P](=S)(OCC)SCCl,-3.5924,0.0,1.0,G1,234.71,3.2134,55.848,11.0,4.0,0.0,6.0,6.0,68.0,0.0,0.0,0.0,0.0,18.46,81.89432866,3.90847195,120.6696698
7897,C-1706,n-hydroxymethyl-3-methoxybenzamide,"InChI=1S/C9H11NO3/c1-13-8-4-2-3-7(5-8)9(12)10-6-11/h2-5,11H,6H2,1H3,(H,10,12)",OVYQBYCEGNAQGH-UHFFFAOYSA-N,COC1=CC=CC(=C1)C(=O)NCO,-1.29,0.0,1.0,G1,181.191,0.3748,47.546,13.0,3.0,2.0,4.0,3.0,70.0,1.0,0.0,0.0,1.0,58.56,76.14539273,2.817571545,298.6662177
4090,B-707,1h-purine,"InChI=1S/C5H4N4/c1-4-5(8-2-6-1)9-3-7-4/h1-3H,(H,6,7,8,9)",KDCGOANMDULRCW-UHFFFAOYSA-N,[nH]1cnc2ncncc12,0.6194,0.0,1.0,G1,120.115,0.3529,31.6837,9.0,3.0,1.0,4.0,0.0,44.0,2.0,0.0,0.0,2.0,54.46,50.98117202,2.95465979,282.9357807
338,A-569,"2,4,4,7-tetramethyloct-6-en-3-one","InChI=1S/C12H22O/c1-9(2)7-8-12(5,6)11(13)10(3)4/h7,10H,8H2,1-6H3",CTLDWNVYXLHMAS-UHFFFAOYSA-N,CC(C)C(=O)C(C)(C)CC=C(C)C,-3.489215864,0.0,1.0,G1,182.307,3.594,57.674,13.0,1.0,0.0,1.0,4.0,76.0,0.0,0.0,0.0,0.0,17.07,82.22553335,4.397313867,205.1643664
5080,B-1906,"guanidine, 2-benzothiazolyl-","InChI=1S/C8H8N4S/c9-7(10)12-8-11-5-3-1-2-4-6(5)13-8/h1-4H,(H4,9,10,11,12)",QMHWARSFUCGBJK-UHFFFAOYSA-N,NC(N)=Nc1sc2ccccc2n1,-2.4412,0.0,1.0,G1,192.247,1.2012,55.0898,13.0,3.0,2.0,5.0,1.0,66.0,2.0,0.0,0.0,2.0,77.29,78.9131249,2.559795429,422.8668956
374,A-640,"(4E)-5,9-dimethyldeca-4,8-dienal","InChI=1S/C12H20O/c1-11(2)7-6-9-12(3)8-4-5-10-13/h7-8,10H,4-6,9H2,1-3H3/b12-8-",MMLYERLRGHVBEK-WQLSENKSSA-N,CC(C)=CCC\C(C)=C/CCC=O,-3.538303545,0.0,1.0,G1,180.291,3.6582,57.72,13.0,1.0,0.0,1.0,6.0,74.0,0.0,0.0,0.0,0.0,17.07,81.53593032,3.601299451,195.1700163
4298,B-982,"benzoic acid, 2,6-dihydroxy-4-methyl-","InChI=1S/C8H8O4/c1-4-2-5(9)7(8(11)12)6(10)3-4/h2-3,9-10H,1H3,(H,11,12)",YBZAVRDNSPUMFK-UHFFFAOYSA-N,Cc1cc(O)c(C(O)=O)c(O)c1,-2.0496,0.0,1.0,G1,168.148,1.10442,41.4679,12.0,3.0,3.0,4.0,1.0,64.0,1.0,0.0,0.0,1.0,77.76,68.7055107,3.379814336,306.8248997
8043,C-1937,"6,7-dimethyl-3h-pteridin-4-one;  4-hydroxy-6,7-dimethylpteridine","InChI=1S/C8H8N4O/c1-4-5(2)12-7-6(11-4)8(13)10-3-9-7/h3H,1-2H3,(H,9,10,12,13)",YZZHLQUXFAOLAA-UHFFFAOYSA-N,CC1=NC2=C(N=C1C)C(=O)NC=N2,-2.29,0.0,1.0,G1,176.179,0.32994,47.4277,13.0,4.0,1.0,5.0,0.0,66.0,2.0,0.0,0.0,2.0,71.53,73.8830659,2.969374596,517.0232205
6039,B-2983,"1,3-benzenediol, 5-(methylthio)-","InChI=1S/C7H8O2S/c1-10-7-3-5(8)2-6(9)4-7/h2-4,8-9H,1H3",QHMRZVIHLYUTOF-UHFFFAOYSA-N,CSc1cc(O)cc(O)c1,-1.7957,0.0,1.0,G1,156.206,1.8197,41.5526,10.0,3.0,2.0,3.0,1.0,54.0,1.0,0.0,0.0,1.0,40.46,63.50792276,3.061688151,214.797758
6282,B-3254,hexaconazole,"InChI=1S/C14H17Cl2N3O/c1-2-3-6-14(20,8-19-10-17-9-18-19)12-5-4-11(15)7-13(12)16/h4-5,7,9-10,20H,2-3,6,8H2,1H3",STMIIPIFODONDC-UHFFFAOYSA-N,CCCCC(O)(Cn1cncn1)c2ccc(Cl)cc2Cl,-4.2668,0.0,1.0,G1,314.216,3.6629,79.9058,20.0,4.0,1.0,6.0,6.0,108.0,2.0,0.0,0.0,2.0,50.94,127.9057977,2.340947918,559.5515885
6239,B-3207,"2,3,3',4',5,6-hexachlorobiphenyl",InChI=1S/C12H4Cl6/c13-6-2-1-5(3-7(6)14)10-11(17)8(15)4-9(16)12(10)18/h1-4H,ZAGRQXMWMRUYRB-UHFFFAOYSA-N,Clc1ccc(cc1Cl)c2c(Cl)c(Cl)cc(Cl)c2Cl,-8.48,0.0,1.0,G1,360.882,7.274,81.938,18.0,0.0,0.0,6.0,1.0,94.0,2.0,0.0,0.0,2.0,0.0,134.3080947,2.737748372,594.2000799
2656,A-4463,3-methylbut-2-enal,"InChI=1S/C5H8O/c1-5(2)3-4-6/h3-4H,1-2H3",SEPQTYODOKLVSB-UHFFFAOYSA-N,CC(C)=CC=O,0.116503747,0.0,1.0,G1,84.118,1.1515,25.495,6.0,1.0,0.0,1.0,1.0,34.0,0.0,0.0,0.0,0.0,17.07,37.67093855,3.405032613,68.00763014
2866,A-4795,(2E)-2-methyl-3-phenylprop-2-enal,"InChI=1S/C10H10O/c1-9(8-11)7-10-5-3-2-4-6-10/h2-8H,1H3/b9-7-",VLUMOWNVWOXZAU-CLFYSBASSA-N,C/C(C=O)=C/c1ccccc1,-2.474718615,0.0,1.0,G1,146.189,2.2888,46.157,11.0,1.0,0.0,1.0,2.0,56.0,1.0,0.0,0.0,1.0,17.07,66.36309064,2.871711891,259.4610831
1734,A-2859,"sodium 3-[2-heptyl-3-(2-hydroxyethyl)-2,3-dihydro-1H-imidazol-1-yl]propanoate","InChI=1S/C15H28N2O3.Na/c1-2-3-4-5-6-7-14-16(9-8-15(19)20)10-11-17(14)12-13-18;/h10-11,14,18H,2-9,12-13H2,1H3,(H,19,20);/q;+1/p-1",YIJNRGGQSJNTGE-UHFFFAOYSA-M,[Na+].CCCCCCCC1N(CCO)C=CN1CCC([O-])=O,0.212706758,0.0,1.0,G1,306.382,-2.1019,76.4258,21.0,5.0,1.0,6.0,11.0,116.0,0.0,0.0,1.0,1.0,66.84,149.836063,4e-06,313.2938552
906,A-1556,"methyl 2,4-dihydroxy-3,6-dimethylbenzoate","InChI=1S/C10H12O4/c1-5-4-7(11)6(2)9(12)8(5)10(13)14-3/h4,11-12H,1-3H3",UUQHKWMIDYRWHH-UHFFFAOYSA-N,COC(=O)c1c(C)cc(O)c(C)c1O,-4.037430925,0.0,1.0,G1,196.202,1.50124,50.5851,14.0,4.0,2.0,4.0,1.0,76.0,1.0,0.0,0.0,1.0,66.76,81.75470641,3.437213166,382.1986551