,ID,Name,InChI,InChIKey,SMILES,Solubility,SD,Ocurrences,Group,MolWt,MolLogP,MolMR,HeavyAtomCount,NumHAcceptors,NumHDonors,NumHeteroatoms,NumRotatableBonds,NumValenceElectrons,NumAromaticRings,NumSaturatedRings,NumAliphaticRings,RingCount,TPSA,LabuteASA,BalabanJ,BertzCT
7433,C-747,5'-pivaloyl-idoxuridine; 5'-pivaloyl-5-iodo-2'-deoxyuridine; 5'-pivaloyl-idu,"InChI=1S/C14H19IN2O6/c1-14(2,3)12(20)22-6-9-8(18)4-10(23-9)17-5-7(15)11(19)16-13(17)21/h5,8-10,18H,4,6H2,1-3H3,(H,16,19,21)",LGQAEHYXRMFPHS-UHFFFAOYSA-N,CC(C)(C)C(=O)OCC1OC(CC1O)N2C=C(I)C(=O)NC2=O,-3.36,0.0,1.0,G1,438.218,0.3789,88.9875,23.0,7.0,2.0,9.0,3.0,128.0,1.0,1.0,1.0,2.0,110.62,145.4919892,2.070505084,704.4446471
5207,B-2041,"10h-phenothiazine, 3-bromo-","InChI=1S/C12H8BrNS/c13-8-5-6-10-12(7-8)15-11-4-2-1-3-9(11)14-10/h1-7,14H",JEWIAYIESCUSKQ-UHFFFAOYSA-N,Brc1ccc2Nc3ccccc3Sc2c1,-6.1119,0.0,1.0,G1,278.174,4.6573,67.9897,15.0,2.0,1.0,3.0,0.0,74.0,2.0,0.0,1.0,3.0,12.03,101.023186,2.10860605,524.7806108
7128,B-4532,p-aminosalicylic acid,"InChI=1S/C7H7NO3/c8-4-1-2-5(7(10)11)6(9)3-4/h1-3,9H,8H2,(H,10,11)",WUBBRNOQWQTFEX-UHFFFAOYSA-N,Nc1ccc(C(O)=O)c(O)c1,-1.9572,0.0,1.0,G1,153.137,0.6726,39.4785,11.0,3.0,3.0,4.0,1.0,58.0,1.0,0.0,0.0,1.0,83.55,62.88622554,3.196069662,295.7372023
3097,A-5163,"3-methylpentane-1,5-diol","InChI=1S/C6H14O2/c1-6(2-4-7)3-5-8/h6-8H,2-5H2,1H3",SXFJDZNJHVPHPH-UHFFFAOYSA-N,CC(CCO)CCO,0.927470714,0.0,1.0,G1,118.176,0.3873,32.5696,8.0,2.0,2.0,2.0,4.0,50.0,0.0,0.0,0.0,0.0,40.46,50.1524291,2.919612641,39.7931939
77,A-124,"sodium 1-amino-9,10-dioxo-4-({2,4,6-trimethyl-3-[(phenylformamido)methyl]phenyl}amino)-9,10-dihydroanthracene-2-sulfonate","InChI=1S/C31H27N3O6S.Na/c1-16-13-17(2)28(18(3)22(16)15-33-31(37)19-9-5-4-6-10-19)34-23-14-24(41(38,39)40)27(32)26-25(23)29(35)20-11-7-8-12-21(20)30(26)36;/h4-14,34H,15,32H2,1-3H3,(H,33,37)(H,38,39,40);/q;+1/p-1",OFHDOLUPOLKDSG-UHFFFAOYSA-M,[Na+].Cc1cc(C)c(Nc2cc(c(N)c3C(=O)c4ccccc4C(=O)c23)[S]([O-])(=O)=O)c(C)c1CNC(=O)c5ccccc5,-1.439605121,0.0,1.0,G1,591.621,1.55116,153.6725,42.0,8.0,3.0,11.0,6.0,208.0,4.0,0.0,1.0,5.0,158.49,265.1176664,4.05e-06,1889.081184
3018,A-5054,10-Methoxyiminostilbene,"InChI=1S/C15H13NO/c1-17-15-10-11-6-2-4-8-13(11)16-14-9-5-3-7-12(14)15/h2-10,16H,1H3",ZKHZWXLOSIGIGZ-UHFFFAOYSA-N,COC1=Cc2ccccc2Nc3ccccc13,-4.514419394,0.0,1.0,G1,223.275,3.8881,71.0467,17.0,2.0,1.0,2.0,1.0,84.0,2.0,0.0,1.0,3.0,21.26,100.5512969,2.244315825,586.9806206
3098,A-5164,bis(2-hydroxyethyl)azanium acetate,"InChI=1S/C4H11NO2.C2H4O2/c6-3-1-5-2-4-7;1-2(3)4/h5-7H,1-4H2;1H3,(H,3,4)",IDOGARCPIAAWMC-UHFFFAOYSA-N,CC(O)=O.OCCNCCO,0.782018876,0.0,1.0,G1,165.189,-1.3485,40.3511,11.0,4.0,4.0,5.0,4.0,68.0,0.0,0.0,0.0,0.0,89.79,65.66387829,0.0,78.65146841
4166,B-811,diethyl maleate,"InChI=1S/C8H12O4/c1-3-11-7(9)5-6-8(10)12-4-2/h5-6H,3-4H2,1-2H3/b6-5-",IEPRKVQEAMIZSS-WAYWQWQTSA-N,CCOC(=O)\C=C/C(=O)OCC,-1.0899,0.01120739,2.0,G3,172.18,0.6688,42.406,12.0,4.0,0.0,4.0,4.0,68.0,0.0,0.0,0.0,0.0,52.6,71.15437746,3.72816041,163.4968818
3984,B-530,octamethyltrisiloxane,"InChI=1S/C8H24O2Si3/c1-11(2,3)9-13(7,8)10-12(4,5)6/h1-8H3",CXQXSVUQTKDNFP-UHFFFAOYSA-N,C[Si](C)(C)O[Si](C)(C)O[Si](C)(C)C,-6.8424,0.0,1.0,G1,236.536,3.3912,66.344,13.0,2.0,0.0,5.0,4.0,80.0,0.0,0.0,0.0,0.0,18.46,86.15721214,4.252851185,149.2084026
6691,B-3811,4-heptanol,"InChI=1S/C7H16O/c1-3-5-7(8)6-4-2/h7-8H,3-6H2,1-2H3",YVBCULSIZWMTFY-UHFFFAOYSA-N,CCCC(O)CCC,-1.3931,0.0,1.0,G1,116.204,1.9475,35.8228,8.0,1.0,1.0,1.0,4.0,50.0,0.0,0.0,0.0,0.0,20.23,51.72313747,2.919612641,37.65148445
4484,B-1202,"1,2:3,4-diepoxybutane","InChI=1S/C4H6O2/c1-3(5-1)4-2-6-4/h3-4H,1-2H2/t3-,4+",ZFIVKAOQEXOYFY-ZXZARUISSA-N,C1O[C@@H]1[C@H]2CO2,1.065,0.0,1.0,G1,86.09,-0.216,19.48,6.0,2.0,0.0,2.0,1.0,34.0,0.0,2.0,2.0,2.0,25.06,36.04950552,1.915546702,53.9483369
5603,B-2491,"benzenesulfonamide, 4-amino-n-1,3,4-thiadiazol-2","InChI=1S/C8H8N4O2S2/c9-6-1-3-7(4-2-6)16(13,14)12-8-11-10-5-15-8/h1-5H,9H2,(H,11,12)",ATEAASNFYTUARU-UHFFFAOYSA-N,Nc1ccc(cc1)[S](=O)(=O)Nc2scnn2,-2.8684,0.0,1.0,G1,256.312,0.9211,61.5719,16.0,6.0,2.0,8.0,3.0,84.0,2.0,0.0,0.0,2.0,97.97,96.1871389,2.288913082,562.5955958
9573,F-994,"1-cyclopropyl-6,8-difluoro-7-(3-methylaminoazetidin-1-yl)-4-oxoquinoline-3-carboxylic acid","InChI=1S/C17H17F2N3O3/c1-20-8-5-21(6-8)15-12(18)4-10-14(13(15)19)22(9-2-3-9)7-11(16(10)23)17(24)25/h4,7-9,20H,2-3,5-6H2,1H3,(H,24,25)",QSNYNWOQOIJCFV-UHFFFAOYSA-N,CNC1CN(C2=C(F)C3=C(C=C2F)C(=O)C(C(=O)O)=CN3C2CC2)C1,-5.31,0.0,1.0,G1,349.337,1.7208,88.415,25.0,5.0,2.0,8.0,4.0,132.0,2.0,2.0,2.0,4.0,74.57,141.2086063,1.96884667,946.5292195
125,A-209,1-(4-methoxyphenyl)-4-(4-nitrophenyl)piperazine,"InChI=1S/C17H19N3O3/c1-23-17-8-6-15(7-9-17)19-12-10-18(11-13-19)14-2-4-16(5-3-14)20(21)22/h2-9H,10-13H2,1H3",AVCKOFMRPAJEPN-UHFFFAOYSA-N,COc1ccc(cc1)N2CCN(CC2)c3ccc(cc3)[N+]([O-])=O,-6.929013035,0.0,1.0,G1,313.357,2.93,90.5164,23.0,5.0,0.0,6.0,4.0,120.0,2.0,1.0,1.0,3.0,58.85,134.593565,1.617703496,662.4878771
7546,C-989,cephalothin,"InChI=1S/C16H16N2O6S2/c1-8(19)24-6-9-7-26-15-12(14(21)18(15)13(9)16(22)23)17-11(20)5-10-3-2-4-25-10/h2-4,12,15H,5-7H2,1H3,(H,17,20)(H,22,23)",XIURVHNZVLADCM-UHFFFAOYSA-N,CC(=O)OCC1=C(N2C(SC1)C(NC(=O)CC3=CC=CS3)C2=O)C(O)=O,-2.94,0.0,1.0,G1,396.446,0.5923,94.3405,26.0,7.0,2.0,10.0,6.0,138.0,1.0,1.0,2.0,3.0,113.01,156.7364797,1.691538027,788.6704466
1167,A-2009,2-methyloctyl prop-2-enoate,"InChI=1S/C13H24O2/c1-4-13(14)15-11-9-7-5-6-8-10-12(2)3/h4,12H,1,5-11H2,2-3H3",LVGFPWDANALGOY-UHFFFAOYSA-N,CC(C)CCCCCCCOC(=O)C=C,-5.199912698,0.0,1.0,G1,212.333,3.7122,63.696,15.0,2.0,0.0,2.0,9.0,88.0,0.0,0.0,0.0,0.0,26.3,93.7040207,3.049012869,173.3747664
417,A-714,"N,N,N-trimethyloctadecan-1-aminium chloride","InChI=1S/C21H46N.ClH/c1-5-6-7-8-9-10-11-12-13-14-15-16-17-18-19-20-21-22(2,3)4;/h5-21H2,1-4H3;1H/q+1;/p-1",VBIIFPGSPJYLRR-UHFFFAOYSA-M,[Cl-].CCCCCCCCCCCCCCCCCC[N+](C)(C)C,-3.851456788,0.0,1.0,G1,348.059,3.9581,102.4454,23.0,0.0,0.0,2.0,17.0,142.0,0.0,0.0,0.0,0.0,0.0,154.1609917,0.0,210.3773341
7311,C-343,ascorbic  acid;  vitamin c,"InChI=1S/C6H8O6/c7-1-2(8)5-3(9)4(10)6(11)12-5/h2,5,7-10H,1H2",CIWBSHSKHKDKBQ-UHFFFAOYSA-N,OCC(O)C1OC(=O)C(=C1O)O,0.28,0.545,2.0,G2,176.124,-1.4074,35.2562,12.0,6.0,4.0,6.0,2.0,68.0,0.0,0.0,1.0,1.0,107.22,67.32052975,2.796067066,232.1928095
2104,A-3473,N-methylcyclohexanamine,"InChI=1S/C7H15N/c1-8-7-5-3-2-4-6-7/h7-8H,2-6H2,1H3",XTUVJUMINZSXGF-UHFFFAOYSA-N,CNC1CCCCC1,-0.321468013,0.0,1.0,G1,113.204,1.5385,35.9327,8.0,1.0,1.0,1.0,1.0,48.0,0.0,1.0,1.0,1.0,12.03,51.47293474,2.125016255,55.40716557
1069,A-1837,magnesium(2+) ion carbonate,"InChI=1S/CH2O3.Mg/c2-1(3)4;/h(H2,2,3,4);/q;+2/p-2",ZLNQQNXFFQJAID-UHFFFAOYSA-L,[Mg++].[O-]C([O-])=O,-2.884501857,0.268801001,2.0,G3,84.313,-2.8278,11.15,5.0,3.0,0.0,4.0,0.0,24.0,0.0,0.0,0.0,0.0,63.19,44.75913644,0.0,29.87430298
5013,B-1835,"2,3,3-trichloro-2-propenoic acid","InChI=1S/C3HCl3O2/c4-1(2(5)6)3(7)8/h(H,7,8)/p-1",WMUBNWIGNSIRDH-UHFFFAOYSA-M,[O-]C(=O)C(Cl)=C(Cl)Cl,-0.4659,0.0,1.0,G1,174.39,0.6218,29.592,8.0,2.0,0.0,5.0,1.0,46.0,0.0,0.0,0.0,0.0,40.13,60.64508676,4.226619287,135.4639616
8907,E-1130,n-octylamine,"InChI=1S/C8H19N/c1-2-3-4-5-6-7-8-9/h2-9H2,1H3",IOQPZZOEVPZRBK-UHFFFAOYSA-N,CCCCCCCCN,-2.75,0.085618785,3.0,G5,129.247,2.3056,42.4304,9.0,1.0,1.0,1.0,6.0,56.0,0.0,0.0,0.0,0.0,26.02,58.63373653,2.595082707,37.83229392
209,A-362,"cobalt(2+);2-ethyl-2,5-dimethylhexanoate","InChI=1S/2C10H20O2.Co/c2*1-5-10(4,9(11)12)7-6-8(2)3;/h2*8H,5-7H2,1-4H3,(H,11,12);/q;;+2/p-2",KOKXAPDKXDSOEG-UHFFFAOYSA-L,[Co++].CCC(C)(CCC(C)C)C([O-])=O.CCC(C)(CCC(C)C)C([O-])=O,-2.716017407,0.0,1.0,G1,401.453,3.1751,94.954,25.0,4.0,0.0,5.0,10.0,151.0,0.0,0.0,0.0,0.0,80.26,164.9105275,-3.72e-07,345.892443
7517,C-941,n-(methyl)thalidomide,"InChI=1S/C14H12N2O4/c1-15-11(17)7-6-10(14(15)20)16-12(18)8-4-2-3-5-9(8)13(16)19/h2-5,10H,6-7H2,1H3",IYYPLFUVXTVBLD-UHFFFAOYSA-N,CN1C(=O)CCC(N2C(=O)C3=C(C=CC=C3)C2=O)C1=O,-2.99,0.0,1.0,G1,272.26,0.43,67.741,20.0,4.0,0.0,6.0,1.0,102.0,1.0,1.0,2.0,3.0,74.76,114.5050335,1.972716382,617.3289181
3400,A-5606,"N-(4-chloro-2,5-dimethoxyphenyl)-2-[(E)-2-(2-chloro-4-{3-chloro-4-[(E)-2-{1-[(4-chloro-2,5-dimethoxyphenyl)carbamoyl]-2-oxopropyl}diazen-1-yl]phenyl}phenyl)diazen-1-yl]-3-oxobutanamide","InChI=1S/C36H32Cl4N6O8/c1-17(47)33(35(49)41-27-15-29(51-3)23(39)13-31(27)53-5)45-43-25-9-7-19(11-21(25)37)20-8-10-26(22(38)12-20)44-46-34(18(2)48)36(50)42-28-16-30(52-4)24(40)14-32(28)54-6/h7-16,33-34H,1-6H3,(H,41,49)(H,42,50)",NKXPXRNUMARIMZ-UHFFFAOYSA-N,COc1cc(NC(=O)C(N=Nc2ccc(cc2Cl)c3ccc(N=NC(C(C)=O)C(=O)Nc4cc(OC)c(Cl)cc4OC)c(Cl)c3)C(C)=O)c(OC)cc1Cl,-8.004532604,0.0,1.0,G1,818.498,9.3616,206.2394,54.0,12.0,2.0,18.0,15.0,282.0,4.0,0.0,0.0,4.0,178.7,329.2886054,1.495287304,2013.126044
6615,B-3654,o-dibromobenzene,InChI=1S/C6H4Br2/c7-5-3-1-2-4-6(5)8/h1-4H,WQONPSCCEXUXTQ-UHFFFAOYSA-N,Brc1ccccc1Br,-3.5,0.0,1.0,G1,235.906,3.2116,41.842,8.0,0.0,0.0,2.0,0.0,42.0,1.0,0.0,0.0,1.0,0.0,65.16649833,3.134861511,162.6383389
6120,B-3074,"1,3,6-naphthalenetrisulfonic acid, 4-amino-","InChI=1S/C10H9NO9S3/c11-10-7-3-5(21(12,13)14)1-2-6(7)8(22(15,16)17)4-9(10)23(18,19)20/h1-4H,11H2,(H,12,13,14)(H,15,16,17)(H,18,19,20)",SWHYBBGFRAEKOS-UHFFFAOYSA-N,Nc1c2cc(ccc2c(cc1[S](O)(=O)=O)[S](O)(=O)=O)[S](O)(=O)=O,-0.3188,0.0,1.0,G1,383.381,0.1621,77.8042,23.0,7.0,4.0,13.0,3.0,126.0,2.0,0.0,0.0,2.0,189.13,130.3388664,3.134984501,1131.802607
1013,A-1751,trimethoxy(octyl)silane,"InChI=1S/C11H26O3Si/c1-5-6-7-8-9-10-11-15(12-2,13-3)14-4/h5-11H2,1-4H3",NMEPHPOFYLLFTK-UHFFFAOYSA-N,CCCCCCCC[Si](OC)(OC)OC,-4.246128199,0.0,1.0,G1,234.412,3.225,64.964,15.0,3.0,0.0,4.0,10.0,92.0,0.0,0.0,0.0,0.0,27.69,95.48028069,3.536968399,129.5300611
6569,B-3565,3-methylcholanthrene,"InChI=1S/C21H16/c1-13-6-7-15-12-20-17-5-3-2-4-14(17)8-9-18(20)19-11-10-16(13)21(15)19/h2-9,12H,10-11H2,1H3",PPQNQXQZIWHJRB-UHFFFAOYSA-N,Cc1ccc2cc3c(ccc4ccccc34)c5CCc1c25,-7.9663,0.02315,2.0,G3,268.359,5.55322,91.105,21.0,0.0,0.0,0.0,0.0,100.0,4.0,0.0,1.0,5.0,0.0,123.5653919,2.079520952,1038.130433
752,A-1309,"sodium 1-amino-4-[(3-acetamidophenyl)amino]-9,10-dioxo-9,10-dihydroanthracene-2-sulfonate","InChI=1S/C22H17N3O6S.Na/c1-11(26)24-12-5-4-6-13(9-12)25-16-10-17(32(29,30)31)20(23)19-18(16)21(27)14-7-2-3-8-15(14)22(19)28;/h2-10,25H,23H2,1H3,(H,24,26)(H,29,30,31);/q;+1/p-1",MIBVDSFVCOIWCC-UHFFFAOYSA-M,[Na+].CC(=O)Nc1cccc(Nc2cc(c(N)c3C(=O)c4ccccc4C(=O)c23)[S]([O-])(=O)=O)c1,-4.307910861,0.054838673,2.0,G3,473.442,-0.3457,116.153,33.0,8.0,3.0,11.0,4.0,162.0,3.0,0.0,1.0,4.0,158.49,210.9657458,3.06e-06,1436.03885
9249,F-570,"4-amino-N-(5,6,7,8-tetrahydroquinazolin-2-yl)benzenesulfonamide","InChI=1S/C14H16N4O2S/c15-11-5-7-12(8-6-11)21(19,20)18-14-16-9-10-3-1-2-4-13(10)17-14/h5-9H,1-4,15H2,(H,16,17,18)",IPDKSGJFMBIZJI-UHFFFAOYSA-N,NC1=CC=C(S(=O)(=O)NC2=NC3=C(C=N2)CCCC3)C=C1,-3.65,0.0,1.0,G1,304.375,1.7384,80.3369,21.0,5.0,2.0,7.0,3.0,110.0,2.0,0.0,1.0,3.0,97.97,123.0322594,1.866855269,757.0435171
2983,A-5000,tris(6-methylheptyl)amine,"InChI=1S/C24H51N/c1-22(2)16-10-7-13-19-25(20-14-8-11-17-23(3)4)21-15-9-12-18-24(5)6/h22-24H,7-21H2,1-6H3",YKGBNAGNNUEZQC-UHFFFAOYSA-N,CC(C)CCCCCN(CCCCCC(C)C)CCCCCC(C)C,-4.05724758,0.336495581,2.0,G3,353.679,7.9376,116.358,25.0,1.0,0.0,1.0,18.0,152.0,0.0,0.0,0.0,0.0,3.24,160.8927533,3.872447673,214.0272423
4500,B-1219,"benzoic acid, 2-hydroxy-, methoxymethyl ester","InChI=1S/C9H10O4/c1-12-6-13-9(11)7-4-2-3-5-8(7)10/h2-5,10H,6H2,1H3",NTIBMIIYTKPBNR-UHFFFAOYSA-N,COCOC(=O)c1ccccc1O,-2.3,0.0,1.0,G1,182.175,1.1529,45.3983,13.0,4.0,1.0,4.0,3.0,70.0,1.0,0.0,0.0,1.0,55.76,75.70907577,2.710721902,295.4211053
2213,A-3658,sodium fluoride,InChI=1S/FH.Na/h1H;/q;+1/p-1,PUZPDOWCWNUUKD-UHFFFAOYSA-M,[F-].[Na+],-0.002187262,0.0,1.0,G1,41.988,-5.992,0.0,2.0,0.0,0.0,2.0,0.0,8.0,0.0,0.0,0.0,0.0,0.0,34.51054035,0.0,2.0
5803,B-2718,"1-naphthalenecarboxamide, n-hydroxy-n-phenyl-","InChI=1S/C17H13NO2/c19-17(18(20)14-9-2-1-3-10-14)16-12-6-8-13-7-4-5-11-15(13)16/h1-12,20H",MDPNINYZZKJMBC-UHFFFAOYSA-N,ON(c1ccccc1)C(=O)c2cccc3ccccc23,-3.9433,0.0,1.0,G1,263.296,3.8758,78.986,20.0,2.0,1.0,3.0,2.0,98.0,3.0,0.0,0.0,3.0,40.54,116.204732,2.05076082,747.7945663
6207,B-3173,"1,3,2-oxazaphosphepin-2(3h)-amine, n,n-bis(2-chl","InChI=1S/C8H17Cl2N2O2P/c9-3-6-12(7-4-10)15(13)11-5-1-2-8-14-15/h1-8H2,(H,11,13)",VTLAANPLIFGAFQ-UHFFFAOYSA-N,ClCCN(CCCl)[P]1(=O)NCCCCO1,-0.9624,0.0,1.0,G1,275.116,2.2741,63.8082,15.0,2.0,1.0,7.0,5.0,90.0,0.0,1.0,1.0,1.0,41.57,100.8064771,2.635587544,212.6872089
9393,F-738,4-[4-(4-chlorophenyl)-4-hydroxypiperidin-1-yl]-1-phenylbutan-1-one,"InChI=1S/C21H24ClNO2/c22-19-10-8-18(9-11-19)21(25)12-15-23(16-13-21)14-4-7-20(24)17-5-2-1-3-6-17/h1-3,5-6,8-11,25H,4,7,12-16H2",XMYBCDHWKUBJDW-UHFFFAOYSA-N,O=C(CCCN1CCC(O)(C2=CC=C(Cl)C=C2)CC1)C1=CC=CC=C1,-3.35,0.0,1.0,G1,357.881,4.2865,101.0293,25.0,3.0,1.0,4.0,6.0,132.0,2.0,1.0,1.0,3.0,40.54,153.786001,1.44774529,691.5958057
3283,A-5398,palladium(2+) ion dinitrate,InChI=1S/2NO3.Pd/c2*2-1(3)4;/q2*-1;+2,GPNDARIEYHPYAY-UHFFFAOYSA-N,[Pd++].[O-][N+]([O-])=O.[O-][N+]([O-])=O,-1.36253525,0.0,1.0,G1,230.428,-0.4807,20.7228,9.0,6.0,0.0,9.0,0.0,56.0,0.0,0.0,0.0,0.0,132.4,61.9619023,-7.2e-08,69.05865003
1484,A-2546,"2-[(2-{[3-(3,5-di-tert-butyl-4-hydroxyphenyl)propanoyl]oxy}ethyl)sulfanyl]ethyl 3-(3,5-di-tert-butyl-4-hydroxyphenyl)propanoate","InChI=1S/C38H58O6S/c1-35(2,3)27-21-25(22-28(33(27)41)36(4,5)6)13-15-31(39)43-17-19-45-20-18-44-32(40)16-14-26-23-29(37(7,8)9)34(42)30(24-26)38(10,11)12/h21-24,41-42H,13-20H2,1-12H3",VFBJXXJYHWLXRM-UHFFFAOYSA-N,CC(C)(C)c1cc(CCC(=O)OCCSCCOC(=O)CCc2cc(c(O)c(c2)C(C)(C)C)C(C)(C)C)cc(c1O)C(C)(C)C,-5.808172472,0.0,1.0,G1,642.943,8.6728,186.8986,45.0,7.0,2.0,7.0,12.0,252.0,2.0,0.0,0.0,2.0,93.06,276.2387045,1.753534383,1144.197283
6827,B-4081,"3,4-dichlorobiphenyl",InChI=1S/C12H8Cl2/c13-11-7-6-10(8-12(11)14)9-4-2-1-3-5-9/h1-8H,ZGHQUYZPMWMLBM-UHFFFAOYSA-N,Clc1ccc(cc1Cl)c2ccccc2,-6.3899,0.52505,2.0,G2,223.102,4.6604,61.898,14.0,0.0,0.0,2.0,1.0,70.0,2.0,0.0,0.0,2.0,0.0,93.09502978,2.483814804,435.3296467
5771,B-2677,"phosphoric acid, bis(methylphenyl) phenyl ester","InChI=1S/C20H19O4P/c1-16-12-14-19(15-13-16)23-25(21,22-18-9-4-3-5-10-18)24-20-11-7-6-8-17(20)2/h3-15H,1-2H3",DAZHWGHCARQALS-UHFFFAOYSA-N,Cc1ccc(O[P](=O)(Oc2ccccc2)Oc3ccccc3C)cc1,-6.3733,0.0,1.0,G1,354.342,5.94834,98.2905,25.0,4.0,0.0,5.0,6.0,128.0,3.0,0.0,0.0,3.0,44.76,147.1657221,1.905793509,875.7127072
8574,D-1393,2-methylbutane,"InChI=1S/C5H12/c1-4-5(2)3/h5H,4H2,1-3H3",QWTDNUCVQCZILF-UHFFFAOYSA-N,CCC(C)C,-3.163,0.007907229,2.0,G3,72.151,2.0524,25.129,5.0,0.0,0.0,0.0,1.0,32.0,0.0,0.0,0.0,0.0,0.0,34.19901949,2.539538861,14.0
558,A-997,1-chloro-4-(trifluoromethyl)benzene,"InChI=1S/C7H4ClF3/c8-6-3-1-5(2-4-6)7(9,10)11/h1-4H",QULYNCCPRWKEMF-UHFFFAOYSA-N,FC(F)(F)c1ccc(Cl)cc1,-3.727695225,0.0,1.0,G1,180.556,3.3588,36.454,11.0,0.0,0.0,4.0,0.0,60.0,1.0,0.0,0.0,1.0,0.0,66.59621767,2.993754788,236.8577533
3625,A-6059,"3-[(E)-2-(4-chloro-2-nitrophenyl)diazen-1-yl]-2-methyl-1H,9H-pyrazolo[3,2-b]quinazolin-9-one","InChI=1S/C17H11ClN6O3/c1-9-15(21-20-13-7-6-10(18)8-14(13)24(26)27)16-19-12-5-3-2-4-11(12)17(25)23(16)22-9/h2-8,20H,1H3/b21-15+",ISLYQRQYGGXHBQ-RCCKNPSSSA-N,CC\1=NN2C(=O)c3ccccc3N=C2C1=N/Nc4ccc(Cl)cc4[N+]([O-])=O,-7.582934488,0.0,1.0,G1,382.767,3.0119,102.7761,27.0,8.0,1.0,10.0,3.0,134.0,3.0,0.0,1.0,4.0,114.78,156.3069677,1.806477433,1231.056112
2719,A-4538,oxan-2-one,InChI=1S/C5H8O2/c6-5-3-1-2-4-7-5/h1-4H2,OZJPLYNZGCXSJM-UHFFFAOYSA-N,O=C1CCCCO1,0.999492173,0.0,1.0,G1,100.117,0.7135,24.81,7.0,2.0,0.0,2.0,0.0,40.0,0.0,1.0,1.0,1.0,26.3,42.46825566,2.249544095,70.14933959
5275,B-2116,"piperidine, 1-(phenylsulfonyl)-","InChI=1S/C11H15NO2S/c13-15(14,11-7-3-1-4-8-11)12-9-5-2-6-10-12/h1,3-4,7-8H,2,5-6,9-10H2",VRYWBMTXKFQBCA-UHFFFAOYSA-N,O=[S](=O)(N1CCCCC1)c2ccccc2,-2.5365,0.0,1.0,G1,225.313,1.8612,59.0518,15.0,2.0,0.0,4.0,2.0,82.0,1.0,1.0,1.0,2.0,37.38,90.7708921,2.263931581,407.4738789
2901,A-4858,benzene; ethenylbenzene; toluene,"InChI=1S/C8H8.C7H8.C6H6/c1-2-8-6-4-3-5-7-8;1-7-5-3-2-4-6-7;1-2-4-6-5-3-1/h2-7H,1H2;2-6H,1H3;1-6H",MHNCXEKWIFKKSF-UHFFFAOYSA-N,Cc1ccccc1.C=Cc2ccccc2.c3ccccc3,-2.961273931,0.258119032,3.0,G5,274.407,6.01122,94.154,21.0,0.0,0.0,0.0,1.0,106.0,3.0,0.0,0.0,3.0,0.0,127.9624771,1.59e-07,541.4969902
730,A-1270,4-[(2-methylprop-2-enoyl)oxy]butyl 2-methylprop-2-enoate,"InChI=1S/C12H18O4/c1-9(2)11(13)15-7-5-6-8-16-12(14)10(3)4/h1,3,5-8H2,2,4H3",XOJWAAUYNWGQAU-UHFFFAOYSA-N,CC(=C)C(=O)OCCCCOC(=O)C(C)=C,-2.969024542,0.0,1.0,G1,226.272,2.0052,60.78,16.0,4.0,0.0,4.0,7.0,90.0,0.0,0.0,0.0,0.0,52.6,95.92454288,3.413855767,261.3938857
5357,B-2211,"methanamine, n-chloro-","InChI=1S/CH4ClN/c1-3-2/h3H,1H3",QXJIABOUHLYVHP-UHFFFAOYSA-N,CNCl,0.2806,0.0,1.0,G1,65.503,0.3596,14.9127,3.0,1.0,1.0,2.0,0.0,20.0,0.0,0.0,0.0,0.0,12.03,24.70405027,1.632993162,4.754887502
3840,B-299,xanthoxyletin,"InChI=1S/C15H14O4/c1-15(2)7-6-10-12(19-15)8-11-9(14(10)17-3)4-5-13(16)18-11/h4-8H,1-3H3",JSJIIHRNDMLJGK-UHFFFAOYSA-N,COc1c2C=CC(=O)Oc2cc3OC(C)(C)C=Cc13,-3.81,0.0,1.0,G1,258.273,2.9858,72.777,19.0,4.0,0.0,4.0,1.0,98.0,2.0,0.0,1.0,3.0,48.67,109.8007155,2.361669969,737.6293642
4913,B-1719,"benzenemethanol, 2,4-dichloro-","InChI=1S/C7H6Cl2O/c8-6-2-1-5(4-10)7(9)3-6/h1-3,10H,4H2",DBHODFSFBXJZNY-UHFFFAOYSA-N,OCc1ccc(Cl)cc1Cl,-2.248,0.0,1.0,G1,177.03,2.4857,42.3848,10.0,1.0,1.0,3.0,1.0,54.0,1.0,0.0,0.0,1.0,20.23,69.19711144,3.069982715,235.047758
9536,F-917,"3-[[2-[2-(3,4-dimethoxyphenyl)ethylamino]-2-oxoethyl]amino]benzamide","InChI=1S/C19H23N3O4/c1-25-16-7-6-13(10-17(16)26-2)8-9-21-18(23)12-22-15-5-3-4-14(11-15)19(20)24/h3-7,10-11,22H,8-9,12H2,1-2H3,(H2,20,24)(H,21,23)",KZOFCELNVLSKGC-UHFFFAOYSA-N,COC1=C(OC)C=C(CCNC(=O)CNC2=CC(C(N)=O)=CC=C2)C=C1,-2.69,0.0,1.0,G1,357.41,1.5735,99.7093,26.0,5.0,3.0,7.0,9.0,138.0,2.0,0.0,0.0,2.0,102.68,152.0328418,1.785666417,777.1295918
9412,F-767,"4-Chloro-N,N-dimethylbenzamide","InChI=1S/C9H10ClNO/c1-11(2)9(12)7-3-5-8(10)6-4-7/h3-6H,1-2H3",FARSXMMESQDZMY-UHFFFAOYSA-N,CN(C)C(=O)C1=CC=C(Cl)C=C1,-1.0,0.0,1.0,G1,183.638,2.0418,49.4695,12.0,1.0,0.0,3.0,1.0,64.0,1.0,0.0,0.0,1.0,20.31,76.75085146,2.899514063,279.0849389
3536,A-5923,"1,2-Benzenedicarboxylic acid, benzyl C7-9-branched and linear alkyl esters","InChI=1S/C23H28O4/c1-2-3-4-5-6-12-17-26-22(24)20-15-10-11-16-21(20)23(25)27-18-19-13-8-7-9-14-19/h7-11,13-16H,2-6,12,17-18H2,1H3",WHHSHXMIKFVAEK-UHFFFAOYSA-N,CCCCCCCCOC(=O)c1ccccc1C(=O)OCc2ccccc2,-8.287652069,0.488861803,2.0,G3,368.473,5.5609,105.662,27.0,4.0,0.0,4.0,11.0,144.0,2.0,0.0,0.0,2.0,52.6,161.0529952,1.841431164,709.3281044
9854,G-1046,RTI 6,"InChI=1S/C16H19N5O2/c1-3-21-14-11(5-4-8-17-14)16(23)18-12-6-7-13(19-15(12)21)20(2)9-10-22/h4-8,22H,3,9-10H2,1-2H3,(H,18,23)",RSPPUQXSQYBMEE-UHFFFAOYSA-N,CCN2c1nc(N(C)(CCO))ccc1NC(=O)c3cccnc23 ,-3.36,0.0,1.0,G1,313.361,1.6288,89.463,23.0,6.0,2.0,7.0,4.0,120.0,2.0,0.0,1.0,3.0,81.59,134.1369002,2.122554422,734.1605763
3899,B-382,triethylene glycol bis(2-ethylbutyrate),"InChI=1S/C18H34O6/c1-5-15(6-2)17(19)23-13-11-21-9-10-22-12-14-24-18(20)16(7-3)8-4/h15-16H,5-14H2,1-4H3",JEYLQCXBYFQJRO-UHFFFAOYSA-N,CCC(CC)C(=O)OCCOCCOCCOC(=O)C(CC)CC,-3.2386,0.0,1.0,G1,346.464,2.9784,91.7,24.0,6.0,0.0,6.0,15.0,142.0,0.0,0.0,0.0,0.0,71.06,145.7204921,3.42875879,291.470675
1032,A-1787,"Glycerol, propoxylated, esters with acrylic acid","InChI=1S/C21H32O9/c1-4-19(22)28-13-7-10-25-16-18(27-12-9-15-30-21(24)6-3)17-26-11-8-14-29-20(23)5-2/h4-6,18H,1-3,7-17H2",DMQYPVOQAARSNF-UHFFFAOYSA-N,C=CC(=O)OCCCOCC(COCCCOC(=O)C=C)OCCCOC(=O)C=C,-2.552747282,0.0,1.0,G1,428.478,1.7627,108.697,30.0,9.0,0.0,9.0,20.0,170.0,0.0,0.0,0.0,0.0,106.59,177.1351219,4.045434528,498.570079
2652,A-4458,"benzene-1,3-diol","InChI=1S/C6H6O2/c7-5-2-1-3-6(8)4-5/h1-4,7-8H",GHMLBKRAJCXXBS-UHFFFAOYSA-N,Oc1cccc(O)c1,1.003488328,0.132434594,4.0,G5,110.112,1.0978,29.7716,8.0,2.0,2.0,2.0,0.0,42.0,1.0,0.0,0.0,1.0,40.46,47.01987062,3.077660438,166.3883389
8114,C-2049,n-(2-benzoyloxyacetyl)proline methyl ester,"InChI=1S/C15H17NO5/c1-20-15(19)12-8-5-9-16(12)13(17)10-21-14(18)11-6-3-2-4-7-11/h2-4,6-7,12H,5,8-10H2,1H3",UQIKOYWGLUXMNE-UHFFFAOYSA-N,COC(=O)C1CCCN1C(=O)COC(=O)C2=CC=CC=C2,-2.08,0.0,1.0,G1,291.303,1.0074,73.4755,21.0,5.0,0.0,6.0,4.0,112.0,1.0,1.0,1.0,2.0,72.91,122.1815414,1.896665125,528.1253314