,ID,Name,InChI,InChIKey,SMILES,Solubility,SD,Ocurrences,Group,MolWt,MolLogP,MolMR,HeavyAtomCount,NumHAcceptors,NumHDonors,NumHeteroatoms,NumRotatableBonds,NumValenceElectrons,NumAromaticRings,NumSaturatedRings,NumAliphaticRings,RingCount,TPSA,LabuteASA,BalabanJ,BertzCT
6696,B-3818,"2,6-dichlorobenzyl alcohol","InChI=1S/C7H6Cl2O/c8-6-2-1-3-7(9)5(6)4-10/h1-3,10H,4H2",WKKHCCZLKYKUDN-UHFFFAOYSA-N,OCc1c(Cl)cccc1Cl,-2.1019,0.0,1.0,G1,177.03,2.4857,42.3848,10.0,1.0,1.0,3.0,1.0,54.0,1.0,0.0,0.0,1.0,20.23,69.19711144,3.169451192,214.797758
9765,G-365,Acetonitrile,InChI=1S/C2H3N/c1-2-3/h1H3,WEVYAHXRMPXWCK-UHFFFAOYSA-N,CC#N,0.26,0.56332755,2.0,G2,41.053,0.52988,11.287,3.0,1.0,0.0,1.0,0.0,16.0,0.0,0.0,0.0,0.0,23.79,19.49677282,2.475534206,24.26466251
2148,A-3539,6-chlorohexan-2-one,"InChI=1S/C6H11ClO/c1-6(8)4-2-3-5-7/h2-5H2,1H3",CMDIDTNMHQUVPE-UHFFFAOYSA-N,CC(=O)CCCCCl,-1.415573876,0.0,1.0,G1,134.606,1.9845,35.252,8.0,1.0,0.0,2.0,4.0,48.0,0.0,0.0,0.0,0.0,17.07,55.02874993,2.822354554,70.92878689
9861,G-1069,Sulfanilamide,"InChI=1S/C6H8N2O2S/c7-5-1-3-6(4-2-5)11(8,9)10/h1-4H,7H2,(H2,8,9,10)",FDDDEECHVMSUSB-UHFFFAOYSA-N,Nc1ccc(cc1)S(N)(=O)=O,-1.34,0.0105,2.0,G3,172.209,-0.0838,42.2276,11.0,3.0,2.0,5.0,1.0,60.0,1.0,0.0,0.0,1.0,86.18,64.87196041,3.201515931,341.349962
6135,B-3091,cycloprothrin,"InChI=1S/C26H21Cl2NO4/c1-2-31-20-13-11-19(12-14-20)25(17-26(25,27)28)24(30)33-23(16-29)18-7-6-10-22(15-18)32-21-8-4-3-5-9-21/h3-15,23H,2,17H2,1H3",CGTWCAVZZBLHQH-UHFFFAOYSA-N,CCOc1ccc(cc1)C2(CC2(Cl)Cl)C(=O)OC(C#N)c3cccc(Oc4ccccc4)c3,-6.7243,0.0,1.0,G1,482.363,6.50108,125.747,33.0,5.0,0.0,7.0,8.0,168.0,3.0,1.0,1.0,4.0,68.55,201.9605672,1.545987932,1174.901206
5253,B-2092,"phosphonic diamide, p-phenyl-","InChI=1S/C6H9N2OP/c7-10(8,9)6-4-2-1-3-5-6/h1-5H,(H4,7,8,9)",SIZHJVYZJFWGHF-UHFFFAOYSA-N,N[P](N)(=O)c1ccccc1,-1.1482,0.0,1.0,G1,156.125,0.4224,42.0573,10.0,1.0,2.0,4.0,1.0,54.0,1.0,0.0,0.0,1.0,69.11,59.51320317,3.087636787,253.7101432
6309,B-3285,phosmethylan,"InChI=1S/C13H19ClNO3PS2/c1-4-7-13(16)15(10-21-19(20,17-2)18-3)12-9-6-5-8-11(12)14/h5-6,8-9H,4,7,10H2,1-3H3",MVBGKYGTNGPFHT-UHFFFAOYSA-N,CCCC(=O)N(CS[P](=S)(OC)OC)c1ccccc1Cl,-5.204,0.0,1.0,G1,367.86,4.6811,94.607,21.0,5.0,0.0,8.0,8.0,118.0,1.0,0.0,0.0,1.0,38.77,139.6026629,2.965639938,521.8927659
5323,B-2172,chlorpyrifos methyl,"InChI=1S/C7H7Cl3NO3PS/c1-12-15(16,13-2)14-7-5(9)3-4(8)6(10)11-7/h3H,1-2H3",HRBKVYFZANMGRE-UHFFFAOYSA-N,CO[P](=S)(OC)Oc1nc(Cl)c(Cl)cc1Cl,-4.831,0.040086019,3.0,G5,322.537,3.9379,68.198,16.0,5.0,0.0,9.0,4.0,90.0,1.0,0.0,0.0,1.0,40.58,113.0112978,3.063766854,437.130382
2919,A-4896,"6-chloro-2,3-dihydro-1H-indol-2-one","InChI=1S/C8H6ClNO/c9-6-2-1-5-3-8(11)10-7(5)4-6/h1-2,4H,3H2,(H,10,11)",CENVPIZOTHULGJ-UHFFFAOYSA-N,Clc1ccc2CC(=O)Nc2c1,-2.968988553,0.0,1.0,G1,167.595,1.8346,43.7857,11.0,1.0,1.0,3.0,0.0,56.0,1.0,0.0,1.0,2.0,29.1,69.17010671,2.506684146,321.8681388
3894,B-376,pralidoxime iodide [usan:inn:jan],"InChI=1S/C7H8N2O.HI/c1-9-5-3-2-4-7(9)6-8-10;/h2-6H,1H3;1H/b7-6+;",QNBVYCDYFJUNLO-UHDJGPCESA-N,[I-].CN1C=CC=C\C1=C/[NH+]=O,-0.7405,0.0,1.0,G1,264.066,-3.3059,38.4557,11.0,2.0,1.0,4.0,1.0,60.0,0.0,0.0,1.0,1.0,34.28,82.45262154,1e-06,220.4804634
3775,B-202,"1,1,2,2,-tetrachlorodifluoroethane","InChI=1S/C2Cl4F2/c3-1(4,7)2(5,6)8",UGCSPKPEHQEOSR-UHFFFAOYSA-N,FC(Cl)(Cl)C(F)(Cl)Cl,-3.2301,0.02055,2.0,G3,203.83,3.1882,31.09,8.0,0.0,0.0,6.0,1.0,50.0,0.0,0.0,0.0,0.0,0.0,64.64832886,4.020391543,67.01955001
1955,A-3220,"1,3-dimethylurea","InChI=1S/C3H8N2O/c1-4-3(6)5-2/h1-2H3,(H2,4,5,6)",MGJKQDOBUOMPEZ-UHFFFAOYSA-N,CNC(=O)NC,0.938636234,0.0,1.0,G1,88.11,-0.4548,23.5154,6.0,1.0,2.0,3.0,0.0,36.0,0.0,0.0,0.0,0.0,41.13,36.73038172,2.988160882,46.7548875
8204,C-2178,"2,3',4,5-tetrachlorodiphenyl  ether",InChI=1S/C12H6Cl4O/c13-7-2-1-3-8(4-7)17-12-6-10(15)9(14)5-11(12)16/h1-6H,QDQGECFQVPRMEO-UHFFFAOYSA-N,ClC1=CC=CC(=C1)OC2=CC(=C(Cl)C=C2Cl)Cl,-7.27,0.0,1.0,G1,307.991,6.0925,72.998,17.0,1.0,0.0,5.0,2.0,88.0,2.0,0.0,0.0,2.0,9.23,118.8151075,2.330496138,554.1970467
1305,A-2264,"4,7-Methano-1H-indenol, 3a,4,5,6,7,7a-hexahydro-, acetate","InChI=1S/C12H16O2/c1-7(13)14-11-5-4-10-8-2-3-9(6-8)12(10)11/h5,8-10,12H,2-4,6H2,1H3",KARQHHMQOVRDNL-UHFFFAOYSA-N,CC(=O)OC1=CCC2C3CCC(C3)C12,-3.009726571,0.0,1.0,G1,192.258,2.4994,52.277,14.0,2.0,0.0,2.0,1.0,76.0,0.0,2.0,3.0,3.0,26.3,84.32158512,1.801304813,305.4435901
9902,H-433,"1,2,4,5-Tetrachlorobenzene  ",InChI=1S/C6H2Cl4/c7-3-1-4(8)6(10)2-5(3)9/h1-2H,JHBKHLUZVFWLAG-UHFFFAOYSA-N,ClC1=CC(Cl)=C(Cl)C=C1Cl,-5.47,0.04485,2.0,G3,215.894,4.3002,46.482,10.0,0.0,0.0,4.0,0.0,54.0,1.0,0.0,0.0,1.0,0.0,78.64446803,3.282462907,205.9198834
5732,B-2632,heptenophos,"InChI=1S/C9H12ClO4P/c1-12-15(11,13-2)14-9-7-5-3-4-6(7)8(9)10/h3-4,6-7H,5H2,1-2H3",GBAWQJNHVWMTLU-UHFFFAOYSA-N,CO[P](=O)(OC)OC1=C(Cl)C2C=CCC12,-2.0011,0.0,1.0,G1,250.618,3.0602,56.3255,15.0,4.0,0.0,6.0,4.0,84.0,0.0,0.0,2.0,2.0,44.76,93.46143216,2.115993974,368.308634
8131,C-2074,2-amino-7-naphthalenesulfonic  acid,"InChI=1S/C10H9NO3S/c11-9-3-1-7-2-4-10(15(12,13)14)6-8(7)5-9/h1-6H,11H2,(H,12,13,14)",OKAUOXITMZTUOJ-UHFFFAOYSA-N,NC1=CC2=C(C=C1)C=CC(=C2)[S](O)(=O)=O,-3.05,0.0,1.0,G1,223.253,1.6687,58.175,15.0,3.0,2.0,5.0,1.0,78.0,2.0,0.0,0.0,2.0,80.39,87.08159436,2.752485352,619.6001476
5024,B-1846,"2h-purin-2-one, 1,3-dihydro-","InChI=1S/C5H4N4O/c10-5-6-1-3-4(9-5)8-2-7-3/h1-2H,(H2,6,7,8,9,10)",CRIZPXKICGBNKG-UHFFFAOYSA-N,O=C1Nc2nc[nH]c2C=N1,-1.7136,0.0,1.0,G1,136.114,-0.3538,34.5094,10.0,3.0,2.0,5.0,0.0,50.0,2.0,0.0,0.0,2.0,74.43,55.14269412,2.99032031,400.9401974
5865,B-2788,prothiophos,"InChI=1S/C11H15Cl2O2PS2/c1-3-7-18-16(17,14-4-2)15-11-6-5-9(12)8-10(11)13/h5-6,8H,3-4,7H2,1-2H3",FITIWKDOCAUBQD-UHFFFAOYSA-N,CCCS[P](=S)(OCC)Oc1ccc(Cl)cc1Cl,-6.693,0.0,1.0,G1,345.253,5.7764,85.75,18.0,4.0,0.0,7.0,7.0,102.0,1.0,0.0,0.0,1.0,18.46,127.2546891,2.851003263,443.0514311
291,A-488,butyl butanoate,"InChI=1S/C8H16O2/c1-3-5-7-10-8(9)6-4-2/h3-7H2,1-2H3",XUPYJHCZDLZNFP-UHFFFAOYSA-N,CCCCOC(=O)CCC,-2.361047779,0.04952611,2.0,G3,144.214,2.1298,40.775,10.0,2.0,0.0,2.0,5.0,60.0,0.0,0.0,0.0,0.0,26.3,62.56891316,3.052375189,89.25838097
7651,C-1237,5-fluorouracil-1-methyl  butyrate;  1-butanoyloxymethyl-5-fluorouracil,"InChI=1S/C9H11FN2O4/c1-2-3-7(13)16-5-12-4-6(10)8(14)11-9(12)15/h4H,2-3,5H2,1H3,(H,11,14,15)",HNKFVQSWWYMANO-UHFFFAOYSA-N,CCCC(=O)OCN1C=C(F)C(=O)NC1=O,-1.31,0.0,1.0,G1,230.195,-0.0235,52.2807,16.0,5.0,1.0,7.0,4.0,88.0,1.0,0.0,0.0,1.0,81.16,89.66902807,2.750821592,491.017732
4050,B-647,bis (2-ethoxy ethyl)  ether,"InChI=1S/C8H18O3/c1-3-9-5-7-11-8-6-10-4-2/h3-8H2,1-2H3",RRQYJINTUHWNHW-UHFFFAOYSA-N,CCOCCOCCOCC,0.7899,0.0,1.0,G1,162.229,1.076,43.805,11.0,3.0,0.0,3.0,8.0,68.0,0.0,0.0,0.0,0.0,27.69,68.63448152,2.690915527,58.35751033
21,A-29,1-methyl-4-(propan-2-ylidene)cyclohex-1-ene,"InChI=1S/C10H16/c1-8(2)10-6-4-9(3)5-7-10/h4H,5-7H2,1-3H3",MOYAFQVGZZPNRA-UHFFFAOYSA-N,CC(C)=C1CCC(=CC1)C,-4.287342935,0.131230591,3.0,G5,136.238,3.453,45.982,10.0,0.0,0.0,0.0,0.0,56.0,0.0,0.0,1.0,1.0,0.0,63.63869284,2.668730432,178.2149912
8046,C-1942,"6,7-diethylpteridine","InChI=1S/C10H12N4/c1-3-7-8(4-2)14-10-9(13-7)5-11-6-12-10/h5-6H,3-4H2,1-2H3",ULZKCUXGSDTDQB-UHFFFAOYSA-N,CCC1=NC2=C(N=CN=C2)N=C1CC,-0.18,0.03,2.0,G3,188.234,1.5446,53.884,14.0,4.0,0.0,4.0,2.0,72.0,2.0,0.0,0.0,2.0,51.56,82.45142803,2.687641593,410.3163166
1277,A-2217,"4-{4-[4-(4-methoxyphenyl)piperazin-1-yl]phenyl}-4,5-dihydro-1H-1,2,4-triazol-5-one","InChI=1S/C19H21N5O2/c1-26-18-8-6-16(7-9-18)23-12-10-22(11-13-23)15-2-4-17(5-3-15)24-14-20-21-19(24)25/h2-9,14H,10-13H2,1H3,(H,21,25)",SEHQVBVJJRRRSG-UHFFFAOYSA-N,COc1ccc(cc1)N2CCN(CC2)c3ccc(cc3)N4C=NNC4=O,-6.488909265,0.0,1.0,G1,351.41,1.8958,101.6047,26.0,6.0,1.0,7.0,4.0,134.0,3.0,1.0,1.0,4.0,66.39,150.9860871,1.410144485,906.1074681
9901,H-432,"1,2,3,5-Tetrachlorobenzene  ",InChI=1S/C6H2Cl4/c7-3-1-4(8)6(10)5(9)2-3/h1-2H,QZYNWJQFTJXIRN-UHFFFAOYSA-N,ClC1=CC(Cl)=C(Cl)C(Cl)=C1,-4.68,0.067993284,3.0,G5,215.894,4.3002,46.482,10.0,0.0,0.0,4.0,0.0,54.0,1.0,0.0,0.0,1.0,0.0,78.64446803,3.310532875,232.9198834
4724,B-1493,n-ethyl-n-nitrosourea,"InChI=1S/C3H7N3O2/c1-2-6(5-8)3(4)7/h2H2,1H3,(H2,4,7)",FUSGACRLAFQQRL-UHFFFAOYSA-N,CCN(N=O)C(N)=O,-0.9547,0.0,1.0,G1,117.108,0.0684,27.7584,8.0,3.0,1.0,5.0,2.0,46.0,0.0,0.0,0.0,0.0,75.76,46.39524973,3.692337094,102.7016577
1271,A-2200,"1-N,4-N-diphenylbenzene-1,4-diamine","InChI=1S/C18H16N2/c1-3-7-15(8-4-1)19-17-11-13-18(14-12-17)20-16-9-5-2-6-10-16/h1-14,19-20H",UTGQNNCQYDRXCH-UHFFFAOYSA-N,N(c1ccccc1)c2ccc(Nc3ccccc3)cc2,-6.239449641,0.0,1.0,G1,260.34,5.1738,85.8914,20.0,2.0,2.0,2.0,4.0,98.0,3.0,0.0,0.0,3.0,24.06,118.6453159,1.6862844,585.51805
8538,D-624,4-trifluoromethyl-2-nitrophenol,"InChI=1S/C7H4F3NO3/c8-7(9,10)4-1-2-6(12)5(3-4)11(13)14/h1-3,12H",XZEDEVRSUANQEM-UHFFFAOYSA-N,Oc1ccc(cc1[N+]([O-])=O)C(F)(F)F,-2.503,0.0,1.0,G1,207.107,2.3192,39.7632,14.0,3.0,1.0,7.0,1.0,76.0,1.0,0.0,0.0,1.0,63.37,75.74016092,3.267886415,374.9330361
6599,B-3621,p-tolyltoluene,"InChI=1S/C14H14/c1-11-3-7-13(8-4-11)14-9-5-12(2)6-10-14/h3-10H,1-2H3",RZTDESRVPFKCBH-UHFFFAOYSA-N,Cc1ccc(cc1)c2ccc(C)cc2,-6.0177,0.0,1.0,G1,182.266,3.97044,61.352,14.0,0.0,0.0,0.0,1.0,70.0,2.0,0.0,0.0,2.0,0.0,85.21838155,2.39650904,363.2962278
3242,A-5347,caesium(1+) ion hydroxide,InChI=1S/Cs.H2O/h;1H2/q+1;/p-1,HUCVOHYBFXVBRW-UHFFFAOYSA-M,[OH-].[Cs+],0.824163602,0.0,1.0,G1,149.912,-3.1728,1.9358,2.0,1.0,0.0,2.0,0.0,8.0,0.0,0.0,0.0,0.0,30.0,72.15402033,0.0,2.0
314,A-523,ammonium fluoride hydrofluoride,InChI=1S/2FH.H3N/h2*1H;1H3,KVBCYCWRDBDGBG-UHFFFAOYSA-N,[H+].[NH4+].[F-].[F-],1.023394133,0.0,1.0,G1,57.043,-5.5033,7.0968,3.0,0.0,1.0,3.0,0.0,24.0,0.0,0.0,0.0,0.0,36.5,18.44635242,0.0,6.0
5617,B-2505,"benzeneacetic acid, .alpha.-hydroxy-, (s)-","InChI=1S/C8H8O3/c9-7(8(10)11)6-4-2-1-3-5-6/h1-5,7,9H,(H,10,11)/t7-/m0/s1",IWYDHOAUDWTVEP-ZETCQYMHSA-N,O[C@H](C(O)=O)c1ccccc1,0.1592,0.0,1.0,G1,152.149,0.8046,39.0376,11.0,2.0,2.0,3.0,2.0,58.0,1.0,0.0,0.0,1.0,57.53,63.91127695,2.85117789,242.7739002
6735,B-3939,"2,2,2-trichloroethanol","InChI=1S/C2H3Cl3O/c3-2(4,5)1-6/h6H,1H2",KPWDGTGXUYRARH-UHFFFAOYSA-N,OCC(Cl)(Cl)Cl,-0.2537,0.0,1.0,G1,149.404,1.3489,27.3758,6.0,1.0,1.0,4.0,0.0,38.0,0.0,0.0,0.0,0.0,20.23,50.80822558,3.168489873,38.54808141
2237,A-3706,amino(phenyl)acetic acid,"InChI=1S/C8H9NO2/c9-7(8(10)11)6-4-2-1-3-5-6/h1-5,7H,9H2,(H,10,11)/t7-/m1/s1",ZGUNAGUHMKGQNY-SSDOTTSWSA-N,[NH3+][C@@H](C([O-])=O)c1ccccc1,-1.508278406,0.0,1.0,G1,151.165,-1.2805,37.0781,11.0,2.0,1.0,3.0,2.0,58.0,1.0,0.0,0.0,1.0,67.77,64.4569339,2.85117789,245.5287877
4837,B-1628,"butanedioic acid, 2,3-diethyl-","InChI=1S/C8H14O4/c1-3-5(7(9)10)6(4-2)8(11)12/h5-6H,3-4H2,1-2H3,(H,9,10)(H,11,12)",KJXMXCRSMLOXBM-UHFFFAOYSA-N,CCC(C(CC)C(O)=O)C(O)=O,-0.8608,0.29745,2.0,G3,174.196,1.208,42.8336,12.0,2.0,2.0,4.0,5.0,70.0,0.0,0.0,0.0,0.0,74.6,71.20535753,4.437883201,155.8966738
5712,B-2611,"1,2,3-thiadiazole-4-carboxylic acid, 5-methyl-","InChI=1S/C4H4N2O2S/c1-2-3(4(7)8)5-6-9-2/h1H3,(H,7,8)",ZLJIFINJKVSIRN-UHFFFAOYSA-N,Cc1snnc1C(O)=O,-0.4598,0.0,1.0,G1,144.155,0.54472,31.6053,9.0,4.0,1.0,5.0,1.0,48.0,1.0,0.0,0.0,1.0,63.08,55.30624599,3.07666344,232.2264365
1024,A-1776,2-(2-methylphenyl)ethanol,"InChI=1S/C9H12O/c1-8-4-2-3-5-9(8)6-7-10/h2-5,10H,6-7H2,1H3",RUGISKODRCWQNE-UHFFFAOYSA-N,Cc1ccccc1CCO,-1.042878011,0.0,1.0,G1,136.194,1.52982,41.9688,10.0,1.0,1.0,1.0,2.0,54.0,1.0,0.0,0.0,1.0,20.23,61.32046321,2.811180917,205.6381692
2854,A-4775,1-methoxy-4-methylbenzene,"InChI=1S/C8H10O/c1-7-3-5-8(9-2)6-4-7/h3-6H,1-2H3",CHLICZRVGGXEOD-UHFFFAOYSA-N,COc1ccc(C)cc1,-2.339542101,0.0,1.0,G1,122.167,2.00362,37.731,9.0,1.0,0.0,1.0,1.0,48.0,1.0,0.0,0.0,1.0,9.23,55.27483258,2.881555878,176.264053
3930,B-434,gamma-terpinene,"InChI=1S/C10H16/c1-8(2)10-6-4-9(3)5-7-10/h4,7-8H,5-6H2,1-3H3",YKFLAYDHMOASIY-UHFFFAOYSA-N,CC(C)C1=CCC(=CC1)C,-4.1958,0.0,1.0,G1,136.238,3.3089,45.912,10.0,0.0,0.0,0.0,1.0,56.0,0.0,0.0,1.0,1.0,0.0,63.63869284,2.538511892,170.4773318
7533,C-969,"n-(3-methyl-5-propylisoxazol-4-yl)-2-hydroxy-1,4-naphthoquinone-4-imine","InChI=1S/C17H16N2O3/c1-3-6-15-16(10(2)19-22-15)18-13-9-14(20)17(21)12-8-5-4-7-11(12)13/h4-5,7-9,20H,3,6H2,1-2H3",JSAKUYFJPZQXBF-UHFFFAOYSA-N,CCCC1=C(N=C2C=C(O)C(=O)C3=C2C=CC=C3)C(=NO1)C,-3.7,0.0,1.0,G1,296.326,3.69452,82.9163,22.0,5.0,1.0,5.0,3.0,112.0,2.0,0.0,1.0,3.0,75.69,127.5290119,2.153821814,799.9854268
8747,E-396,furan,InChI=1S/C4H4O/c1-2-4-5-3-1/h1-4H,YLQBMQCUIZJEEH-UHFFFAOYSA-N,O1C=CC=C1,-0.82,0.006493825,2.0,G3,68.075,1.2796,18.708,5.0,1.0,0.0,1.0,0.0,26.0,1.0,0.0,0.0,1.0,13.14,30.22573238,3.125,60.12481811
7870,C-1666,5-methylbarbituric acid,"InChI=1S/C5H6N2O3/c1-2-3(8)6-5(10)7-4(2)9/h2H,1H3,(H2,6,7,8,9,10)",GOMAEJQBTWAPAN-UHFFFAOYSA-N,CC1C(=O)NC(=O)NC1=O,-1.13,0.0,1.0,G1,142.114,-1.0115,30.8454,10.0,3.0,2.0,5.0,0.0,54.0,0.0,1.0,1.0,1.0,75.27,56.777479,2.756446108,190.938603
4693,B-1454,"1,3,5-triazin-2(1h)-one, 4,6-diamino-","InChI=1S/C3H5N5O/c4-1-6-2(5)8-3(9)7-1/h(H5,4,5,6,7,8,9)",MASBWURJQFFLOO-UHFFFAOYSA-N,NC1=NC(=O)N=C(N)N1,-3.2291,0.0,1.0,G1,127.107,-1.6707,31.4775,9.0,5.0,3.0,6.0,0.0,48.0,1.0,0.0,0.0,1.0,110.68,49.93165056,3.332334627,241.9007718
9745,G-151,"2,3,4,6-Tetrachlorophenol","InChI=1S/C6H2Cl4O/c7-2-1-3(8)6(11)5(10)4(2)9/h1,11H",VGVRPFIJEJYOFN-UHFFFAOYSA-N,Oc1c(Cl)cc(Cl)c(Cl)c1Cl,-3.1,0.4518,2.0,G3,231.893,4.0058,48.1468,11.0,1.0,1.0,5.0,0.0,60.0,1.0,0.0,0.0,1.0,20.23,83.43870178,3.455546484,270.8740242
1283,A-2232,"6-Bromo-3-methyl-3H-dibenz[f,ij]isoquinoline-2,7-dione","InChI=1S/C17H10BrNO2/c1-19-13-7-6-12(18)16-15(13)11(8-14(19)20)9-4-2-3-5-10(9)17(16)21/h2-8H,1H3",QTNAUUGQZYCWGQ-UHFFFAOYSA-N,CN1C(=O)C=C2c3ccccc3C(=O)c4c(Br)ccc1c24,-6.680445321,0.0,1.0,G1,340.176,3.5124,85.7575,21.0,3.0,0.0,4.0,0.0,102.0,3.0,0.0,1.0,4.0,39.07,128.5144262,2.349565223,1001.578121
2723,A-4545,propanoic acid,"InChI=1S/C3H6O2/c1-2-3(4)5/h2H2,1H3,(H,4,5)",XBDQKXXYIPTUBI-UHFFFAOYSA-N,CCC(O)=O,1.130304889,0.0,1.0,G1,74.079,0.481,17.9268,5.0,1.0,1.0,2.0,1.0,30.0,0.0,0.0,0.0,0.0,37.3,30.42489111,2.847378923,40.15772188
4244,B-916,leucine,"InChI=1S/C6H13NO2/c1-4(2)3-5(7)6(8)9/h4-5H,3,7H2,1-2H3,(H,8,9)",ROHFNLRQFUQHCH-UHFFFAOYSA-N,CC(C)CC(N)C(O)=O,-1.0456,0.161635067,4.0,G5,131.175,0.4444,35.0662,9.0,2.0,2.0,3.0,3.0,54.0,0.0,0.0,0.0,0.0,63.32,54.85960815,3.501688451,101.2309827
4424,B-1128,"1,1-dichlorobutane","InChI=1S/C4H8Cl2/c1-2-3-4(5)6/h4H,2-3H2,1H3",SEQRDAAUNCRFIT-UHFFFAOYSA-N,CCCC(Cl)Cl,-2.4036,0.0,1.0,G1,127.014,2.5902,30.402,6.0,0.0,0.0,2.0,2.0,38.0,0.0,0.0,0.0,0.0,0.0,48.44060982,2.627214848,26.72905595
2734,A-4560,2-methoxy-2-methylbutane,"InChI=1S/C6H14O/c1-5-6(2,3)7-4/h5H2,1-4H3",HVZJRWJGKQPSFL-UHFFFAOYSA-N,CCC(C)(C)OC,-0.979563677,0.009948373,3.0,G5,102.177,1.8214,31.379,7.0,1.0,0.0,1.0,2.0,44.0,0.0,0.0,0.0,0.0,9.23,45.67750683,3.360435143,42.14170945
6417,B-3401,silafluofen,"InChI=1S/C25H29FO2Si/c1-4-27-21-13-15-23(16-14-21)29(2,3)18-8-9-20-12-17-24(26)25(19-20)28-22-10-6-5-7-11-22/h5-7,10-17,19H,4,8-9,18H2,1-3H3",HPYNBECUCCGGPA-UHFFFAOYSA-N,CCOc1ccc(cc1)[Si](C)(C)CCCc2ccc(F)c(Oc3ccccc3)c2,-8.6113,0.0,1.0,G1,408.589,6.5649,120.771,29.0,2.0,0.0,4.0,9.0,152.0,3.0,0.0,0.0,3.0,18.46,173.8737994,1.596548008,907.8662975
5658,B-2551,"acetamide, n- 4- (2-pyridinylamino)sulfonyl phen","InChI=1S/C13H13N3O3S/c1-10(17)15-11-5-7-12(8-6-11)20(18,19)16-13-4-2-3-9-14-13/h2-9H,1H3,(H,14,16)(H,15,17)",CYLYVXPHAQLXFG-UHFFFAOYSA-N,CC(=O)Nc1ccc(cc1)[S](=O)(=O)Nc2ccccn2,-3.7162,0.0,1.0,G1,291.332,1.8408,75.7912,20.0,4.0,2.0,7.0,4.0,104.0,2.0,0.0,0.0,2.0,88.16,116.4600519,2.194477787,697.401057
8652,D-1859,"benzenamine, 2,4-dinitro-n-phenyl-","InChI=1S/C12H9N3O4/c16-14(17)10-6-7-11(12(8-10)15(18)19)13-9-4-2-1-3-5-9/h1-8,13H",RHTVQEPJVKUMPI-UHFFFAOYSA-N,[O-][N+](=O)c1ccc(Nc2ccccc2)c(c1)[N+]([O-])=O,-3.834,0.0,1.0,G1,259.221,3.2466,69.4755,19.0,5.0,1.0,7.0,4.0,96.0,2.0,0.0,0.0,2.0,98.31,107.344311,2.399145008,628.1265517
3328,A-5478,"4-[(4-ethoxyphenyl)amino]-N,N-dimethyl-3-nitrobenzene-1-sulfonamide","InChI=1S/C16H19N3O5S/c1-4-24-13-7-5-12(6-8-13)17-15-10-9-14(11-16(15)19(20)21)25(22,23)18(2)3/h5-11,17H,4H2,1-3H3",SIFKXZAVMBSRMB-UHFFFAOYSA-N,CCOc1ccc(Nc2ccc(cc2[N+]([O-])=O)[S](=O)(=O)N(C)C)cc1,-4.261751621,0.0,1.0,G1,365.411,2.9874,94.8629,25.0,6.0,1.0,9.0,7.0,134.0,2.0,0.0,0.0,2.0,101.78,145.7852585,2.362468299,863.8389677
6677,B-3783,p-bromobenzoic acid,"InChI=1S/C7H5BrO2/c8-6-3-1-5(2-4-6)7(9)10/h1-4H,(H,9,10)",TUXYZHVUPGXXQG-UHFFFAOYSA-N,OC(=O)c1ccc(Br)cc1,-3.5251,0.16245,2.0,G3,201.019,2.1473,41.1013,10.0,1.0,1.0,3.0,1.0,52.0,1.0,0.0,0.0,1.0,37.3,66.61964869,3.003400685,240.2879489
1727,A-2852,2-methylpropyl (2R)-2-hydroxypropanoate,"InChI=1S/C7H14O3/c1-5(2)4-10-7(9)6(3)8/h5-6,8H,4H2,1-3H3/t6-/m1/s1",WBPAQKQBUKYCJS-ZCFIWIBFSA-N,CC(C)COC(=O)[C@@H](C)O,-0.412857335,0.036765034,2.0,G3,146.186,0.5664,37.4778,10.0,3.0,1.0,3.0,3.0,60.0,0.0,0.0,0.0,0.0,46.53,60.9982048,3.403753306,107.4188468
1946,A-3209,benzyldimethylamine,"InChI=1S/C9H13N/c1-10(2)8-9-6-4-3-5-7-9/h3-7H,8H2,1-2H3",XXBDWLFCJWSEKW-UHFFFAOYSA-N,CN(C)Cc1ccccc1,-1.227918826,0.088059413,2.0,G3,135.21,1.7482,43.833,10.0,1.0,0.0,1.0,2.0,54.0,1.0,0.0,0.0,1.0,3.24,62.28606313,2.587287185,179.1795714
765,A-1335,2-methoxy-5-nitroaniline,"InChI=1S/C7H8N2O3/c1-12-7-3-2-5(9(10)11)4-6(7)8/h2-4H,8H2,1H3",NIPDVSLAMPAWTP-UHFFFAOYSA-N,COc1ccc(cc1N)[N+]([O-])=O,-1.883279356,0.64086242,2.0,G2,168.152,1.1856,44.0608,12.0,4.0,1.0,5.0,2.0,64.0,1.0,0.0,0.0,1.0,78.39,68.90275688,3.09818035,311.51984
5075,B-1901,"acetamide, 2,2-dichloro-n-phenyl-","InChI=1S/C8H7Cl2NO/c9-7(10)8(12)11-6-4-2-1-3-5-6/h1-5,7H,(H,11,12)",KJSVAEGLTPBKAA-UHFFFAOYSA-N,ClC(Cl)C(=O)Nc1ccccc1,-3.3555,0.0,1.0,G1,204.056,2.4288,50.5657,12.0,1.0,1.0,4.0,2.0,64.0,1.0,0.0,0.0,1.0,29.1,80.47920409,2.58978298,261.0201873
1690,A-2796,"3-(1,3-benzothiazol-2-yl)-7-(diethylamino)-2-oxo-2H-chromene-4-carbonitrile","InChI=1S/C21H17N3O2S/c1-3-24(4-2)13-9-10-14-15(12-22)19(21(25)26-17(14)11-13)20-23-16-7-5-6-8-18(16)27-20/h5-11H,3-4H2,1-2H3",NDKYYKABKLOOAP-UHFFFAOYSA-N,CCN(CC)c1ccc2c(OC(=O)C(=C2C#N)c3sc4ccccc4n3)c1,-8.097434324,0.0,1.0,G1,375.453,4.78758,109.374,27.0,6.0,0.0,6.0,4.0,134.0,4.0,0.0,0.0,4.0,70.13,159.6553005,1.966088022,1212.98041
6368,B-3347,pyridaben,"InChI=1S/C19H25ClN2OS/c1-18(2,3)14-9-7-13(8-10-14)12-24-15-11-21-22(19(4,5)6)17(23)16(15)20/h7-11H,12H2,1-6H3",DWFZBUWUXWZWKD-UHFFFAOYSA-N,CC(C)(C)N1N=CC(=C(Cl)C1=O)SCc2ccc(cc2)C(C)(C)C,-7.483,0.0,1.0,G1,364.942,5.2415,103.206,24.0,4.0,0.0,5.0,3.0,130.0,2.0,0.0,0.0,2.0,34.89,152.9785957,2.155488072,767.924514
7504,C-919,chlordiazepoxide,"InChI=1S/C16H14ClN3O/c1-18-15-10-20(21)16(11-5-3-2-4-6-11)13-9-12(17)7-8-14(13)19-15/h2-9H,10H2,1H3,(H,18,19)",ANTSCNMPPGJYLG-UHFFFAOYSA-N,CNC1=NC2=CC=C(Cl)C=C2C(=[N+]([O-])C1)C3=CC=CC=C3,-4.48,0.0,1.0,G1,299.761,2.9507,85.7541,21.0,3.0,1.0,5.0,1.0,106.0,2.0,0.0,1.0,3.0,50.46,127.5444518,2.27183897,738.442238
3406,A-5621,"N-(5-chloro-2,4-dimethoxyphenyl)-4-[(E)-2-[5-(diethylsulfamoyl)-2-methoxyphenyl]diazen-1-yl]-3-hydroxynaphthalene-2-carboxamide","InChI=1S/C30H31ClN4O7S/c1-6-35(7-2)43(38,39)19-12-13-25(40-3)24(15-19)33-34-28-20-11-9-8-10-18(20)14-21(29(28)36)30(37)32-23-16-22(31)26(41-4)17-27(23)42-5/h8-17,33H,6-7H2,1-5H3,(H,32,37)/b34-28+",OGCJONWNAAHWSZ-CDSHQWRTSA-N,CCN(CC)[S](=O)(=O)c1ccc(OC)c(N\N=C2\C(=O)C(=Cc3ccccc23)C(=O)Nc4cc(Cl)c(OC)cc4OC)c1,-7.905255356,0.0,1.0,G1,627.119,4.8173,165.8722,43.0,9.0,2.0,13.0,11.0,226.0,3.0,0.0,1.0,4.0,135.63,254.6822013,1.713617452,1734.189045
1759,A-2894,sodium 2-(morpholin-4-yl)ethane-1-sulfonate,"InChI=1S/C6H13NO4S.Na/c8-12(9,10)6-3-7-1-4-11-5-2-7;/h1-6H2,(H,8,9,10);/q;+1/p-1",IRHWMYKYLWNHTL-UHFFFAOYSA-M,[Na+].[O-][S](=O)(=O)CCN1CCOCC1,0.188529745,0.0,1.0,G1,217.222,-4.1322,41.8232,13.0,5.0,0.0,7.0,3.0,72.0,0.0,1.0,1.0,1.0,69.67,100.473545,1.44e-06,224.7887508
5672,B-2568,"4(1h)-pyrimidinone, 5-bromo-","InChI=1S/C4H3BrN2O/c5-3-1-6-2-7-4(3)8/h1-2H,(H,6,7,8)",CLJIGLPOBRSBNU-UHFFFAOYSA-N,BrC1=CN=CNC1=O,-0.4471,0.0,1.0,G1,174.985,0.5324,32.5577,8.0,2.0,1.0,4.0,0.0,42.0,1.0,0.0,0.0,1.0,45.75,53.89976879,3.346607391,231.4799615