,ID,Name,InChI,InChIKey,SMILES,Solubility,SD,Ocurrences,Group,MolWt,MolLogP,MolMR,HeavyAtomCount,NumHAcceptors,NumHDonors,NumHeteroatoms,NumRotatableBonds,NumValenceElectrons,NumAromaticRings,NumSaturatedRings,NumAliphaticRings,RingCount,TPSA,LabuteASA,BalabanJ,BertzCT
4000,B-553,metaldehyde (tetramer),"InChI=1S/C8H16O4/c1-5-9-6(2)11-8(4)12-7(3)10-5/h5-8H,1-4H3",GKKDCARASOJPNG-UHFFFAOYSA-N,CC1OC(C)OC(C)OC(C)O1,-2.8997,0.01515,2.0,G3,176.212,1.4504,42.188,12.0,4.0,0.0,4.0,0.0,72.0,0.0,1.0,1.0,1.0,36.92,72.74219559,2.450052922,99.01955001
4984,B-1801,clorexolone,"InChI=1S/C14H17ClN2O3S/c15-12-6-9-8-17(10-4-2-1-3-5-10)14(18)11(9)7-13(12)21(16,19)20/h6-7,10H,1-5,8H2,(H2,16,19,20)",VPMWFZKOWULPGT-UHFFFAOYSA-N,N[S](=O)(=O)c1cc2c(CN(C3CCCCC3)C2=O)cc1Cl,-4.3128,0.0,1.0,G1,328.821,2.2759,79.5717,21.0,3.0,1.0,7.0,2.0,114.0,1.0,1.0,2.0,3.0,80.47,128.6645663,1.962881599,696.4158255
8620,D-1689,ricinine,"InChI=1S/C8H8N2O2/c1-10-4-3-7(12-2)6(5-9)8(10)11/h3-4H,1-2H3",PETSAYFQSGAEQY-UHFFFAOYSA-N,COC1=C(C#N)C(=O)N(C)C=C1,-1.784,0.0,1.0,G1,164.164,0.26558,42.95,12.0,4.0,0.0,4.0,1.0,62.0,1.0,0.0,0.0,1.0,55.02,69.62349594,3.49387105,387.0248258
5635,B-2525,"benzoic acid, 4-amino-, 1-methylethyl ester","InChI=1S/C10H13NO2/c1-7(2)13-10(12)8-3-5-9(11)6-4-8/h3-7H,11H2,1-2H3",JWCPZKNBPMSYND-UHFFFAOYSA-N,CC(C)OC(=O)c1ccc(N)cc1,-2.6099,0.0,1.0,G1,179.219,1.834,51.4059,13.0,3.0,1.0,3.0,2.0,70.0,1.0,0.0,0.0,1.0,52.32,77.5061296,2.721056713,290.2979848
6382,B-3363,flumetsulam,"InChI=1S/C12H9F2N5O2S/c1-7-5-6-19-11(15-7)16-12(17-19)22(20,21)18-10-8(13)3-2-4-9(10)14/h2-6,18H,1H3",RXCPQSJAVKGONC-UHFFFAOYSA-N,Cc1ccn2nc(nc2n1)[S](=O)(=O)Nc3c(F)cccc3F,-3.8248,0.201210524,2.0,G3,325.3,1.51172,72.6855,22.0,6.0,1.0,10.0,3.0,114.0,3.0,0.0,0.0,3.0,89.25,123.2407062,2.0454353,950.5571107
1125,A-1930,undecan-2-one,"InChI=1S/C11H22O/c1-3-4-5-6-7-8-9-10-11(2)12/h3-10H2,1-2H3",KYWIYKKSMDLRDC-UHFFFAOYSA-N,CCCCCCCCCC(C)=O,-4.20182067,0.0,1.0,G1,170.296,3.7161,53.291,12.0,1.0,0.0,1.0,8.0,72.0,0.0,0.0,0.0,0.0,17.07,76.55019427,2.861387339,107.57174
9974,I-79,sulfamethazine,"InChI=1S/C12H14N4O2S/c1-8-7-9(2)15-12(14-8)16-19(17,18)11-5-3-10(13)4-6-11/h3-7H,13H2,1-2H3,(H,14,15,16)",ASWVTGNCAZCNNR-UHFFFAOYSA-N,S(=O)(=O)(Nc1nc(C)cc(n1)C)c1ccc(N)cc1,-2.73,0.23075,2.0,G3,278.337,1.47644,73.1689,19.0,5.0,2.0,7.0,3.0,100.0,2.0,0.0,0.0,2.0,97.97,111.3082063,2.330509006,675.9193645
8324,C-2344,amoxicillin,"InChI=1S/C16H19N3O5S/c1-16(2)11(15(23)24)19-13(22)10(14(19)25-16)18-12(21)9(17)7-3-5-8(20)6-4-7/h3-6,9-11,14,20H,17H2,1-2H3,(H,18,21)(H,23,24)",LSQZJLSUYDQPKJ-UHFFFAOYSA-N,CC1(C)SC2C(NC(=O)C(N)C3=CC=C(O)C=C3)C(=O)N2C1C(O)=O,-2.17,0.0,1.0,G1,365.411,0.0237,90.6937,25.0,6.0,4.0,9.0,4.0,134.0,1.0,2.0,2.0,3.0,132.96,147.9148923,1.704346484,735.7906646
1256,A-2174,disodium oxotitaniumbis(olate),InChI=1S/2Na.3O.Ti/q2*+1;3*-2;+4,LJUBBLNHYXJKSN-UHFFFAOYSA-N,[O--].[O--].[O--].[Na+].[Na+].[Ti+4],-5.805457995,0.0,1.0,G1,141.844,-6.3509,2.0595,6.0,0.0,0.0,6.0,0.0,24.0,0.0,0.0,0.0,0.0,85.5,95.64367091,0.0,8.754887502
2634,A-4430,"1,4-dimethyl butanedioate","InChI=1S/C6H10O4/c1-9-5(7)3-4-6(8)10-2/h3-4H2,1-2H3",MUXOBHXGJLMRAB-UHFFFAOYSA-N,COC(=O)CCC(=O)OC,-0.075223164,0.335214515,3.0,G5,146.142,0.1126,33.266,10.0,4.0,0.0,4.0,3.0,58.0,0.0,0.0,0.0,0.0,52.6,59.11409626,3.352921516,113.7095059
9688,F-1155,2-(4-methylpiperazin-1-yl)ethyl 2-(6-methoxynaphthalen-2-yl)propanoate,"InChI=1S/C21H28N2O3/c1-16(21(24)26-13-12-23-10-8-22(2)9-11-23)17-4-5-19-15-20(25-3)7-6-18(19)14-17/h4-7,14-16H,8-13H2,1-3H3",CBVJNCUEPFCOOK-UHFFFAOYSA-N,COC1=CC2=CC=C(C(C)C(=O)OCCN3CCN(C)CC3)C=C2C=C1,-1.49,0.0,1.0,G1,356.466,2.7425,103.811,26.0,5.0,0.0,5.0,6.0,140.0,2.0,1.0,1.0,3.0,42.01,155.0298797,1.547966344,754.0046422
4888,B-1693,aldicarb sulfoxide,"InChI=1S/C7H14N2O3S/c1-7(2,13(4)11)5-9-12-6(10)8-3/h5H,1-4H3,(H,8,10)/b9-5+",BXPMAGSOWXBZHS-WEVVVXLNSA-N,CNC(=O)O\N=C\C(C)(C)[S](C)=O,-0.8673,0.0,1.0,G1,206.267,0.4853,52.1781,13.0,4.0,1.0,6.0,3.0,76.0,0.0,0.0,0.0,0.0,67.76,79.97744842,4.116180067,237.8921539
6476,B-3461,transfluthrin,"InChI=1S/C15H12Cl2F4O2/c1-15(2)7(3-10(16)17)11(15)14(22)23-5-6-12(20)8(18)4-9(19)13(6)21/h3-4,7,11H,5H2,1-2H3/t7-,11+/m1/s1",DDVNRFNDOPPVQJ-HQJQHLMTSA-N,CC1(C)[C@H](C=C(Cl)Cl)[C@H]1C(=O)OCc2c(F)c(F)cc(F)c2F,-6.8137,0.0,1.0,G1,371.157,4.8774,76.62,23.0,2.0,0.0,8.0,4.0,126.0,1.0,1.0,1.0,2.0,26.3,139.5641894,2.112361523,658.2947166
4156,B-799,"3,4-dihydroxybenzaldehyde","InChI=1S/C7H6O3/c8-4-5-1-2-6(9)7(10)3-5/h1-4,9-10H",IBGBGRVKPALMCQ-UHFFFAOYSA-N,Oc1ccc(C=O)cc1O,-1.3402,0.4501,2.0,G3,138.122,0.9103,35.1591,10.0,3.0,2.0,3.0,1.0,52.0,1.0,0.0,0.0,1.0,57.53,57.54633484,3.158901732,255.0281739
7255,C-183,"5,5-(spirocyclohexyl)thiobarbituric  acid;  5,5-spiropentamethylene-2-thiobarbituric acid","InChI=1S/C9H12N2O2S/c12-6-9(4-2-1-3-5-9)7(13)11-8(14)10-6/h1-5H2,(H2,10,11,12,13,14)",XIOUPQUYEUYPAW-UHFFFAOYSA-N,O=C1NC(=S)NC(=O)C12CCCCC2,-3.46,0.0,1.0,G1,212.274,0.4678,54.4014,14.0,3.0,2.0,5.0,0.0,76.0,0.0,2.0,2.0,2.0,58.2,87.42867445,2.267090622,285.9338151
1338,A-2320,divanadium pentaoxide,InChI=1S/5O.2V,GNTDGMZSJNCJKK-UHFFFAOYSA-N,O=[V](=O)O[V](=O)=O,-2.303614127,0.0,1.0,G1,181.879,-0.5486,3.831,7.0,5.0,0.0,7.0,2.0,40.0,0.0,0.0,0.0,0.0,77.51,48.38095382,3.773284861,134.5191757
455,A-794,"4-(2,6,6-trimethylcyclohex-1-en-1-yl)butan-2-one","InChI=1S/C13H22O/c1-10-6-5-9-13(3,4)12(10)8-7-11(2)14/h5-9H2,1-4H3",QJJDNZGPQDGNDX-UHFFFAOYSA-N,CC(=O)CCC1=C(C)CCCC1(C)C,-3.655044576,0.0,1.0,G1,194.318,3.8822,60.247,14.0,1.0,0.0,1.0,3.0,80.0,0.0,0.0,1.0,1.0,17.07,87.58464431,2.745230748,258.4091282
9021,F-166,2-[(2-aminoacetyl)amino]-4-methylpentanoic acid,"InChI=1S/C8H16N2O3/c1-5(2)3-6(8(12)13)10-7(11)4-9/h5-6H,3-4,9H2,1-2H3,(H,10,11)(H,12,13)",DKEXFJVMVGETOO-UHFFFAOYSA-N,CC(C)CC(NC(=O)CN)C(=O)O,-0.43,0.0,1.0,G1,188.227,-0.4394,48.0759,13.0,3.0,3.0,5.0,5.0,76.0,0.0,0.0,0.0,0.0,92.42,77.30087666,4.099242404,191.8281606
2449,A-4100,prop-2-enal,"InChI=1S/C3H4O/c1-2-3-4/h2-3H,1H2",HGINCPLSRVDWNT-UHFFFAOYSA-N,C=CC=O,0.569379255,0.200310373,2.0,G3,56.064,0.3713,16.261,4.0,1.0,0.0,1.0,1.0,22.0,0.0,0.0,0.0,0.0,17.07,24.94105432,2.732050808,24.26466251
245,A-411,4-hydroxy-3-methoxy-5-nitrobenzaldehyde,"InChI=1S/C8H7NO5/c1-14-7-3-5(4-10)2-6(8(7)11)9(12)13/h2-4,11H,1H3",ZEHYRTJBFMZHCY-UHFFFAOYSA-N,COc1cc(C=O)cc(c1O)[N+]([O-])=O,-2.44968993,0.0,1.0,G1,197.146,1.1215,46.7007,14.0,5.0,1.0,6.0,3.0,74.0,1.0,0.0,0.0,1.0,89.67,78.88356415,3.410012363,387.5631831
9940,I-10,amodiaquine,"InChI=1S/C20H22ClN3O/c1-3-24(4-2)13-14-11-16(6-8-20(14)25)23-18-9-10-22-19-12-15(21)5-7-17(18)19/h5-12,25H,3-4,13H2,1-2H3,(H,22,23)",OVCDSSHSILBFBN-UHFFFAOYSA-N,c1(c(CN(CC)CC)cc(cc1)Nc1ccnc2c1ccc(c2)Cl)O,-5.79,0.0,1.0,G1,355.869,5.1792,104.7675,25.0,4.0,2.0,5.0,6.0,130.0,3.0,0.0,0.0,3.0,48.39,152.6217162,1.907886251,877.9443065
3690,B-56,lysine,"InChI=1S/C6H14N2O2/c7-4-2-1-3-5(8)6(9)10/h5H,1-4,7-8H2,(H,9,10)",KDXKERNSBIXSRK-UHFFFAOYSA-N,NCCCCC(N)C(O)=O,0.8351,0.0,1.0,G1,146.19,-0.4727,38.5166,10.0,3.0,3.0,4.0,5.0,60.0,0.0,0.0,0.0,0.0,89.34,60.19949885,3.214876897,105.9209386
4345,B-1034,di-2-chloroethyl sulfide,InChI=1S/C4H8Cl2S/c5-1-3-7-4-2-6/h1-4H2,QKSKPIVNLNLAAV-UHFFFAOYSA-N,ClCCSCCCl,-2.3666,0.0,1.0,G1,159.081,2.1972,38.765,7.0,1.0,0.0,3.0,4.0,44.0,0.0,0.0,0.0,0.0,0.0,58.56371985,2.447472888,28.8707654
7707,C-1342,3-benzoyl-5-fluorouracil,"InChI=1S/C11H7FN2O3/c12-8-6-13-11(17)14(10(8)16)9(15)7-4-2-1-3-5-7/h1-6H,(H,13,17)",OAPBZIITNDJWQW-UHFFFAOYSA-N,FC1=CNC(=O)N(C1=O)C(=O)C2=CC=CC=C2,-2.26,0.0,1.0,G1,234.186,0.3642,57.4512,17.0,4.0,1.0,6.0,1.0,86.0,2.0,0.0,0.0,2.0,71.93,94.15280859,2.641959823,673.1061659
3178,A-5261,"N,N-dimethylimidodicarbonimidic diamide hydrochloride","InChI=1S/C4H11N5.ClH/c1-9(2)4(7)8-3(5)6;/h1-2H3,(H5,5,6,7,8);1H",OETHQSJEHLVLGH-UHFFFAOYSA-N,[H+].[Cl-].CN(C)C(=N)N=C(N)N,0.257987497,0.0,1.0,G1,165.628,-4.12733,38.3355,10.0,1.0,3.0,6.0,0.0,60.0,0.0,0.0,0.0,0.0,91.49,67.49225754,-3.2e-07,141.4178439
8120,C-2056,"n1,n4-diacetylsulfanilamide;  n4-acetylsulfacetamide","InChI=1S/C10H12N2O4S/c1-7(13)11-9-3-5-10(6-4-9)17(15,16)12-8(2)14/h3-6H,1-2H3,(H,11,13)(H,12,14)",YTJJPFRVBNFIBN-UHFFFAOYSA-N,CC(=O)NC1=CC=C(C=C1)[S](=O)(=O)NC(C)=O,-2.78,0.0,1.0,G1,256.283,0.4698,61.7482,17.0,4.0,2.0,7.0,3.0,92.0,1.0,0.0,0.0,1.0,92.34,99.07471604,2.944257042,533.9292548
4342,B-1030,2-aminopyridine,"InChI=1S/C5H6N2/c6-5-3-1-2-4-7-5/h1-4H,(H2,6,7)",ICSNLGPSRYBMBD-UHFFFAOYSA-N,Nc1ccccn1,0.9757,0.025315962,2.0,G3,94.117,0.6638,28.6494,7.0,2.0,1.0,2.0,0.0,36.0,1.0,0.0,0.0,1.0,38.91,41.9909418,3.02146531,136.0075042
8298,C-2306,o-[(4-morpholinomethyl)benzoyl]metronidazole,"InChI=1S/C18H22N4O5/c1-14-19-12-17(22(24)25)21(14)8-11-27-18(23)16-4-2-15(3-5-16)13-20-6-9-26-10-7-20/h2-5,12H,6-11,13H2,1H3",QFLZEYUXHIFILY-UHFFFAOYSA-N,CC1=NC=C([N]1CCOC(=O)C2=CC=C(CN3CCOCC3)C=C2)[N+]([O-])=O,-2.89,0.0,1.0,G1,374.397,1.78892,96.4389,27.0,8.0,0.0,9.0,7.0,144.0,2.0,1.0,1.0,3.0,99.73,156.207347,1.507315057,796.5833591
8038,C-1930,di(4-tolyl)  ether,"InChI=1S/C14H14O/c1-11-3-7-13(8-4-11)15-14-9-5-12(2)6-10-14/h3-10H,1-2H3",YWYHGNUFMPSTTR-UHFFFAOYSA-N,CC1=CC=C(OC2=CC=C(C)C=C2)C=C1,-4.85,0.0,1.0,G1,198.265,4.09574,62.432,15.0,1.0,0.0,1.0,2.0,76.0,2.0,0.0,0.0,2.0,9.23,90.33192678,2.146711376,382.4008091
900,A-1547,"1,2-bis(2-methylpropyl) cyclohexane-1,2-dicarboxylate","InChI=1S/C16H28O4/c1-11(2)9-19-15(17)13-7-5-6-8-14(13)16(18)20-10-12(3)4/h11-14H,5-10H2,1-4H3",QUKHPBOCBWDYMW-UHFFFAOYSA-N,CC(C)COC(=O)C1CCCCC1C(=O)OCC(C)C,-4.19123514,0.0,1.0,G1,284.396,3.1912,77.042,20.0,4.0,0.0,4.0,6.0,116.0,0.0,1.0,1.0,1.0,52.6,121.7576862,2.563737388,290.4385619
3507,A-5851,borane,InChI=1S/BH2/h1H2,IOCVPZINIZVUIL-UHFFFAOYSA-N,[B],-4.843574339,0.0,1.0,G1,10.812,-0.3808,5.754,1.0,0.0,0.0,1.0,0.0,3.0,0.0,0.0,0.0,0.0,0.0,9.690588115,0.0,0.0
1491,A-2553,2-hexyldecan-1-ol,"InChI=1S/C16H34O/c1-3-5-7-9-10-12-14-16(15-17)13-11-8-6-4-2/h16-17H,3-15H2,1-2H3",XULHFMYCBKQGEE-UHFFFAOYSA-N,CCCCCCCCC(CO)CCCCCC,-5.384616815,0.0,1.0,G1,242.447,5.3159,77.3278,17.0,1.0,1.0,1.0,13.0,104.0,0.0,0.0,0.0,0.0,20.23,109.0076165,3.284155888,133.4868683
3724,B-107,"alanine, 2-methyl-","InChI=1S/C4H9NO2/c1-4(2,5)3(6)7/h5H2,1-2H3,(H,6,7)",FUOOLUPWFVMBKG-UHFFFAOYSA-N,CC(C)(N)C(O)=O,0.2453,0.06265,2.0,G3,103.121,-0.1917,25.9022,7.0,2.0,2.0,3.0,1.0,42.0,0.0,0.0,0.0,0.0,63.32,42.12972392,3.791118417,82.18080947
3286,A-5404,"1,5-dimethyl-1-vinylhex-4-en-1-yl formate","InChI=1S/C11H18O2/c1-5-11(4,13-9-12)8-6-7-10(2)3/h5,7,9H,1,6,8H2,2-4H3",JZOCDHMHLGUPFI-UHFFFAOYSA-N,CC(C)=CCCC(C)(OC=O)C=C,-4.040590426,0.0,1.0,G1,182.263,2.8505,54.416,13.0,2.0,0.0,2.0,6.0,74.0,0.0,0.0,0.0,0.0,26.3,80.28453344,4.041775586,202.1358185
5774,B-2680,"phosphoric acid, diethyl 2-methylpropyl ester","InChI=1S/C8H19O4P/c1-5-10-13(9,11-6-2)12-7-8(3)4/h8H,5-7H2,1-4H3",VAUVEZMZAPNZOT-UHFFFAOYSA-N,CCO[P](=O)(OCC)OCC(C)C,-1.1765,0.0,1.0,G1,210.21,2.8401,51.6485,13.0,4.0,0.0,5.0,7.0,80.0,0.0,0.0,0.0,0.0,44.76,80.18409219,3.993597834,159.5269618
1724,A-2849,lithium(1+) ion chloride,InChI=1S/ClH.Li/h1H;/q;+1/p-1,KWGKDLIKAYFUFQ-UHFFFAOYSA-M,[Li+].[Cl-],1.134397972,0.079992054,2.0,G3,42.394,-5.992,0.0,2.0,0.0,0.0,2.0,0.0,8.0,0.0,0.0,0.0,0.0,0.0,31.81913654,0.0,2.0
3471,A-5769,"2,5-dimethylhexane-2,5-diyl bis[2-(ethylperoxy)hexanoate]","InChI=1S/C24H46O6/c1-9-13-15-19(11-3)21(25)27-29-23(5,6)17-18-24(7,8)30-28-22(26)20(12-4)16-14-10-2/h19-20H,9-18H2,1-8H3",JUIBLDFFVYKUAC-UHFFFAOYSA-N,CCCCC(CC)C(=O)OOC(C)(C)CCC(C)(C)OOC(=O)C(CC)CCCC,-7.188496045,0.0,1.0,G1,430.626,6.7062,118.358,30.0,6.0,0.0,6.0,17.0,178.0,0.0,0.0,0.0,0.0,71.06,183.7687354,4.471600151,442.0878253
1975,A-3256,Dihydrodicyclopentadienyl acrylate,"InChI=1S/C13H16O2/c1-2-12(14)15-11-6-5-10-8-3-4-9(7-8)13(10)11/h2,5-6,8-11,13H,1,3-4,7H2",ISRJTGUYHVPAOR-UHFFFAOYSA-N,C=CC(=O)OC1C=CC2C3CCC(C3)C12,-3.708142472,0.0,1.0,G1,204.269,2.3163,57.028,15.0,2.0,0.0,2.0,2.0,80.0,0.0,2.0,3.0,3.0,26.3,89.99692421,1.749424723,331.4276545
5399,B-2255,"l-serine, n-l-seryl-","InChI=1S/C6H12N2O5/c7-3(1-9)5(11)8-4(2-10)6(12)13/h3-4,9-10H,1-2,7H2,(H,8,11)(H,12,13)",XZKQVQKUZMAADP-UHFFFAOYSA-N,NC(CO)C(=O)NC(CO)C(O)=O,-0.5847,0.0,1.0,G1,192.171,-3.1323,41.7135,13.0,5.0,5.0,7.0,5.0,76.0,0.0,0.0,0.0,0.0,132.88,74.15945994,4.086585688,195.4636326
8768,E-569,pyrrolidine,"InChI=1S/C4H9N/c1-2-4-5-3-1/h5H,1-4H2",RWRDLPDLKQPQOW-UHFFFAOYSA-N,N(CCC1)C1,1.15,0.0,1.0,G1,71.123,0.3698,22.1037,5.0,1.0,1.0,1.0,0.0,30.0,0.0,1.0,1.0,1.0,12.03,32.3781084,2.083333333,15.21928095
6935,B-4242,cyanofenphos,"InChI=1S/C15H14NO2PS/c1-2-17-19(20,15-6-4-3-5-7-15)18-14-10-8-13(12-16)9-11-14/h3-11H,2H2,1H3",LRNJHZNPJSPMGK-UHFFFAOYSA-N,CCO[P](=S)(Oc1ccc(cc1)C#N)c2ccccc2,-5.7037,0.0,1.0,G1,303.323,3.60858,83.772,20.0,4.0,0.0,5.0,5.0,102.0,2.0,0.0,0.0,2.0,42.25,123.4962517,2.294205283,649.823773
321,A-542,"N,N-dibutyloctadec-9-enamide","InChI=1S/C26H51NO/c1-4-7-10-11-12-13-14-15-16-17-18-19-20-21-22-23-26(28)27(24-8-5-2)25-9-6-3/h15-16H,4-14,17-25H2,1-3H3/b16-15-",YMGHPIVBMBXPCR-NXVVXOECSA-N,CCCCCCCC\C=C/CCCCCCCC(=O)N(CCCC)CCCC,-4.788985441,0.0,1.0,G1,393.7,8.4527,125.848,28.0,1.0,0.0,2.0,21.0,166.0,0.0,0.0,0.0,0.0,20.31,177.0945566,3.511128154,342.3419784
1913,A-3151,cyclohexanone,InChI=1S/C6H10O/c7-6-4-2-1-3-5-6/h1-5H2,JHIVVAPYMSGYDF-UHFFFAOYSA-N,O=C1CCCCC1,-0.057369728,0.257749722,3.0,G5,98.145,1.5196,28.092,7.0,1.0,0.0,1.0,0.0,40.0,0.0,1.0,1.0,1.0,17.07,43.71965255,2.249544095,68.24920506
9010,F-150,2-amino-3-[5-(2-amino-3-hydroxy-3-oxopropyl)sulfanylpentylsulfanyl]propanoic acid,"InChI=1S/C11H22N2O4S2/c12-8(10(14)15)6-18-4-2-1-3-5-19-7-9(13)11(16)17/h8-9H,1-7,12-13H2,(H,14,15)(H,16,17)",ATZQWAYWRBSTCE-UHFFFAOYSA-N,NC(CSCCCCCSCC(N)C(=O)O)C(=O)O,-2.91,0.0,1.0,G1,310.441,0.4469,79.7234,19.0,6.0,4.0,8.0,12.0,112.0,0.0,0.0,0.0,0.0,126.64,121.2261853,3.235917136,253.4208001
3683,B-44,4-dimethylamino-3'-methylazobenzene,"InChI=1S/C15H17N3/c1-12-5-4-6-14(11-12)17-16-13-7-9-15(10-8-13)18(2)3/h4-11H,1-3H3",LVTFSVIRYMXRSR-UHFFFAOYSA-N,CN(C)c1ccc(cc1)N=Nc2cccc(C)c2,-5.7769,0.0,1.0,G1,239.322,4.47642,76.124,18.0,3.0,0.0,3.0,3.0,92.0,2.0,0.0,0.0,2.0,27.96,107.7899352,2.136611708,541.9201016
8180,C-2148,nifurtoinol;  3-(hydroxymethyl)nitrofurantoin,"InChI=1S/C9H8N4O6/c14-5-11-7(15)4-12(9(11)16)10-3-6-1-2-8(19-6)13(17)18/h1-3,14H,4-5H2/b10-3+",UIDWQGRXEVDFCA-XCVCLJGOSA-N,OCN1C(=O)CN(/N=C/C2=CC=C(O2)[N+]([O-])=O)C1=O,-2.91,0.0,1.0,G1,268.185,-0.2643,58.9902,19.0,7.0,1.0,10.0,4.0,100.0,1.0,1.0,1.0,2.0,129.49,105.1999913,2.084165306,564.810994
6468,B-3453,sec-butyl ethylamine,"InChI=1S/C6H15N/c1-4-6(3)7-5-2/h6-7H,4-5H2,1-3H3",KFYKZKISJBGVMR-UHFFFAOYSA-N,CCNC(C)CC,-0.21,0.0,1.0,G1,101.193,1.3944,33.4297,7.0,1.0,1.0,1.0,3.0,44.0,0.0,0.0,0.0,0.0,12.03,46.11382378,2.831819966,35.16125946
6796,B-4033,"1,2-dino2 4-methyl benzene","InChI=1S/C7H6N2O4/c1-5-2-3-6(8(10)11)7(4-5)9(12)13/h2-4H,1H3",INYDMNPNDHRJQJ-UHFFFAOYSA-N,Cc1ccc(c(c1)[N+]([O-])=O)[N+]([O-])=O,-3.2604,0.0,1.0,G1,182.135,1.81142,44.4878,13.0,4.0,0.0,6.0,2.0,68.0,1.0,0.0,0.0,1.0,86.28,73.10229668,3.348659071,374.7553336
7650,C-1233,"1-(2,2-dimethylpropanoyloxymethyl)-5-fluorouracil;  1-pivaloyloxymethyl-5-fluorouracil","InChI=1S/C10H13FN2O4/c1-10(2,3)8(15)17-5-13-4-6(11)7(14)12-9(13)16/h4H,5H2,1-3H3,(H,12,14,16)",SYAUFWSKTQBAJI-UHFFFAOYSA-N,CC(C)(C)C(=O)OCN1C=C(F)C(=O)NC1=O,-2.03,0.0,1.0,G1,244.222,0.2225,56.8277,17.0,5.0,1.0,7.0,2.0,94.0,1.0,0.0,0.0,1.0,81.16,96.03397019,2.845150356,538.4624839
9781,G-532,Cycloheptanol,"InChI=1S/C7H14O/c8-7-5-3-1-2-4-6-7/h7-8H,1-6H2",QCRFMSUKWRQZEM-UHFFFAOYSA-N,OC1CCCCCC1,-0.88,0.0,1.0,G1,114.188,1.7015,33.7088,8.0,1.0,1.0,1.0,0.0,48.0,0.0,1.0,1.0,1.0,20.23,50.71730631,2.165963585,53.40716557
1875,A-3079,morpholin-4-ium sulfamate,"InChI=1S/C4H9NO.H3NO3S/c1-3-6-4-2-5-1;1-5(2,3)4/h5H,1-4H2;(H3,1,2,3,4)",PHUIJNUKWTUKLJ-UHFFFAOYSA-N,N[S](O)(=O)=O.C1COCCN1,0.727886015,0.0,1.0,G1,184.217,-1.6459,39.4247,11.0,4.0,3.0,7.0,0.0,68.0,0.0,1.0,1.0,1.0,101.65,65.601389,1.87e-07,155.0213046
5757,B-2659,hexene - mixture of isomers,"InChI=1S/C6H12/c1-3-5-6-4-2/h3,5H,4,6H2,1-2H3/b5-3+",RYPKRALMXUUNKS-HWKANZROSA-N,CCC\C=C\C,-3.2262,0.0,1.0,G1,84.162,2.3626,29.722,6.0,0.0,0.0,0.0,2.0,36.0,0.0,0.0,0.0,0.0,0.0,39.87435857,2.658099936,35.30296891
1732,A-2857,(2S)-2-hydroxy-3-(phenylamino)propane-1-sulfonate,"InChI=1S/C9H13NO4S/c11-9(7-15(12,13)14)6-10-8-4-2-1-3-5-8/h1-5,9-11H,6-7H2,(H,12,13,14)/p-1/t9-/m0/s1",CLEVULOKVPBHCU-VIFPVBQESA-M,O[C@@H](CNc1ccccc1)C[S]([O-])(=O)=O,0.11878449,0.0,1.0,G1,230.265,0.0046,55.5027,15.0,5.0,2.0,6.0,5.0,84.0,1.0,0.0,0.0,1.0,89.46,88.49896141,2.381374734,389.8331882
2446,A-4096,sodium 4-[(4-methyl-3-nitrobenzoyl)amino]benzenesulfonate,"InChI=1S/C14H12N2O6S.Na/c1-9-2-3-10(8-13(9)16(18)19)14(17)15-11-4-6-12(7-5-11)23(20,21)22;/h2-8H,1H3,(H,15,17)(H,20,21,22);/q;+1/p-1",YLDIMJOASVRWAO-UHFFFAOYSA-M,[Na+].Cc1ccc(cc1[N+]([O-])=O)C(=O)Nc2ccc(cc2)[S]([O-])(=O)=O,-1.232035998,0.0,1.0,G1,358.307,-0.93638,80.1918,24.0,6.0,1.0,10.0,4.0,120.0,2.0,0.0,0.0,2.0,129.44,159.6247772,2.88e-06,880.6377219
3428,A-5675,"2,2'-(1,4-phenylene)bis[4-(4-methoxybenzylidene)-1,3-oxazol-5(4H)-one]","InChI=1S/C28H20N2O6/c1-33-21-11-3-17(4-12-21)15-23-27(31)35-25(29-23)19-7-9-20(10-8-19)26-30-24(28(32)36-26)16-18-5-13-22(34-2)14-6-18/h3-16H,1-2H3/b23-15+,24-16+",XZRFHDOOIZDXFC-DFEHQXHXSA-N,COc1ccc(cc1)\C=C/2N=C(OC2=O)c3ccc(cc3)C4=NC(=C/c5ccc(OC)cc5)/C(=O)O4,-6.983571154,0.0,1.0,G1,480.476,4.3928,133.642,36.0,8.0,0.0,8.0,6.0,178.0,3.0,0.0,2.0,5.0,95.78,206.3720144,1.331626775,1334.884483
8192,C-2162,l-dopa benzyl ester,"InChI=1S/C16H17NO4/c17-13(8-12-6-7-14(18)15(19)9-12)16(20)21-10-11-4-2-1-3-5-11/h1-7,9,13,18-19H,8,10,17H2",KZQJKVJONMBQQU-UHFFFAOYSA-N,NC(CC1=CC(=C(O)C=C1)O)C(=O)OCC2=CC=CC=C2,-1.81,0.0,1.0,G1,287.315,1.711,77.689,21.0,5.0,3.0,5.0,5.0,110.0,2.0,0.0,0.0,2.0,92.78,122.1516913,1.88496984,612.9289707
7570,C-1035,fenthiaprop-ethyl,"InChI=1S/C18H16ClNO4S/c1-3-22-17(21)11(2)23-13-5-7-14(8-6-13)24-18-20-15-9-4-12(19)10-16(15)25-18/h4-11H,3H2,1-2H3",HVCNNTAUBZIYCG-UHFFFAOYSA-N,CCOC(=O)C(C)OC1=CC=C(OC2=NC3=C(S2)C=C(Cl)C=C3)C=C1,-5.67,0.0,1.0,G1,377.849,5.0724,97.869,25.0,6.0,0.0,7.0,6.0,130.0,3.0,0.0,0.0,3.0,57.65,153.6603077,1.660184252,878.4183797
2778,A-4644,calcium bis(2-methyloctanoate),"InChI=1S/2C9H18O2.Ca/c2*1-2-3-4-5-6-7-8-9(10)11;/h2*2-8H2,1H3,(H,10,11);/q;;+2/p-2",QSSGIYRIEKPVTG-UHFFFAOYSA-L,[Ca++].CCCCCCCCC([O-])=O.CCCCCCCCC([O-])=O,-2.412949573,0.518232851,2.0,G2,354.544,2.593,91.754,23.0,4.0,0.0,5.0,14.0,132.0,0.0,0.0,0.0,0.0,80.26,171.9763778,-3.33e-07,231.4061403
7681,C-1290,2-carboxy-n(benzoyloxyacetyl)azetidine,"InChI=1S/C13H13NO5/c15-11(14-7-6-10(14)12(16)17)8-19-13(18)9-4-2-1-3-5-9/h1-5,10H,6-8H2,(H,16,17)",JLZFEIOGWCNGPG-UHFFFAOYSA-N,OC(=O)C1CCN1C(=O)COC(=O)C2=CC=CC=C2,-2.14,0.0,1.0,G1,263.249,0.5289,64.4783,19.0,4.0,1.0,6.0,4.0,100.0,1.0,1.0,1.0,2.0,83.91,109.1323457,1.843568525,499.0148573
6132,B-3088,diofenolan,"InChI=1S/C18H20O4/c1-2-18-20-13-17(22-18)12-19-14-8-10-16(11-9-14)21-15-6-4-3-5-7-15/h3-11,17-18H,2,12-13H2,1H3/t17-,18+/m1/s1",ZDOOQPFIGYHZFV-MSOLQXFVSA-N,CC[C@H]1OC[C@@H](COc2ccc(Oc3ccccc3)cc2)O1,-4.7874,0.0,1.0,G1,300.354,4.0092,83.357,22.0,4.0,0.0,4.0,6.0,116.0,2.0,1.0,1.0,3.0,36.92,130.1264998,1.492719459,567.4008443
3639,A-6079,dodecyl 2-methylprop-2-enoate,"InChI=1S/C16H30O2/c1-4-5-6-7-8-9-10-11-12-13-14-18-16(17)15(2)3/h2,4-14H2,1,3H3",GMSCBRSQMRDRCD-UHFFFAOYSA-N,CCCCCCCCCCCCOC(=O)C(C)=C,-8.405541006,0.0,1.0,G1,254.414,5.0266,77.617,18.0,2.0,0.0,2.0,12.0,106.0,0.0,0.0,0.0,0.0,26.3,112.798847,3.074821697,221.1368501
7393,C-633,"5-(1-aziridinyl)-2,4-dinitrobenzamide","InChI=1S/C9H8N4O5/c10-9(14)5-3-7(11-1-2-11)8(13(17)18)4-6(5)12(15)16/h3-4H,1-2H2,(H2,10,14)",WOCXQMCIOTUMJV-UHFFFAOYSA-N,NC(=O)C1=CC(=C(C=C1[N+]([O-])=O)[N+]([O-])=O)N2CC2,-2.3,0.0,1.0,G1,252.186,0.4219,60.4817,18.0,6.0,1.0,9.0,4.0,94.0,1.0,1.0,1.0,2.0,132.38,100.0875962,2.673854578,566.321577
2540,A-4249,sodium nonyl sulfate,"InChI=1S/C9H20O4S.Na/c1-2-3-4-5-6-7-8-9-13-14(10,11)12;/h2-9H2,1H3,(H,10,11,12);/q;+1/p-1",FTWCSAMTIKSPAT-UHFFFAOYSA-M,[Na+].CCCCCCCCCO[S]([O-])(=O)=O,-0.13619896,0.0,1.0,G1,246.304,-0.7822,53.6422,15.0,4.0,0.0,6.0,9.0,86.0,0.0,0.0,0.0,0.0,66.43,115.0233727,0.0,216.152234