,ID,Name,InChI,InChIKey,SMILES,Solubility,SD,Ocurrences,Group,MolWt,MolLogP,MolMR,HeavyAtomCount,NumHAcceptors,NumHDonors,NumHeteroatoms,NumRotatableBonds,NumValenceElectrons,NumAromaticRings,NumSaturatedRings,NumAliphaticRings,RingCount,TPSA,LabuteASA,BalabanJ,BertzCT
8455,C-2535,"5-(2-carboxybenzenesulfonylimido)-4-methyl-delta2-1,3,4-thiadiazoline-2-sulfonamide","InChI=1S/C10H10N4O6S3/c1-14-9(21-10(12-14)22(11,17)18)13-23(19,20)7-5-3-2-4-6(7)8(15)16/h2-5H,1H3,(H,15,16)(H2,11,17,18)",RAJJRSWYQMFJLA-UHFFFAOYSA-N,CN1N=C(SC1=N[S](=O)(=O)C2=C(C=CC=C2)C(O)=O)[S](N)(=O)=O,-2.51,0.0,1.0,G1,378.413,-0.8832,78.6083,23.0,8.0,2.0,13.0,4.0,124.0,2.0,0.0,0.0,2.0,161.78,134.1889867,2.68330472,1048.260603
305,A-506,2-[2-(2-ethoxyethoxy)ethoxy]ethyl methacrylate,"InChI=1S/C12H22O5/c1-4-14-5-6-15-7-8-16-9-10-17-12(13)11(2)3/h2,4-10H2,1,3H3",RBFPEAGEJJSYCX-UHFFFAOYSA-N,CCOCCOCCOCCOC(=O)C(C)=C,-0.603011426,0.0,1.0,G1,246.303,1.1754,63.904,17.0,5.0,0.0,5.0,11.0,100.0,0.0,0.0,0.0,0.0,53.99,102.6797143,3.084416123,214.9415278
4538,B-1265,bethanechol chloride,"InChI=1S/C7H16N2O2.ClH/c1-6(11-7(8)10)5-9(2,3)4;/h6H,5H2,1-4H3,(H-,8,10);1H",XXRMYXBSBOVVBH-UHFFFAOYSA-N,[Cl-].CC(C[N+](C)(C)C)OC(N)=O,0.5021,0.0,1.0,G1,196.678,-2.8196,43.0298,12.0,2.0,1.0,5.0,3.0,74.0,0.0,0.0,0.0,0.0,52.32,79.66676015,0.0,144.8320272
1393,A-2415,sodium methanethiolate,"InChI=1S/CH4S.Na/c1-2;/h2H,1H3;/q;+1/p-1",RMBAVIFYHOYIFM-UHFFFAOYSA-M,[Na+].C[S-],-1.845668452,0.0,1.0,G1,70.092,-2.8329,13.289,3.0,1.0,0.0,2.0,0.0,14.0,0.0,0.0,0.0,0.0,0.0,48.30771731,0.0,4.754887502
5971,B-2905,"phenol, 4-(2-aminoethyl)-2-nitro-","InChI=1S/C8H10N2O3/c9-4-3-6-1-2-8(11)7(5-6)10(12)13/h1-2,5,11H,3-4,9H2",IUCYCHQMRZWPGT-UHFFFAOYSA-N,NCCc1ccc(O)c(c1)[N+]([O-])=O,-1.3399,0.0,1.0,G1,182.179,0.8016,47.5196,13.0,4.0,2.0,5.0,3.0,70.0,1.0,0.0,0.0,1.0,89.39,74.94838752,3.037310846,325.1652198
732,A-1275,2-(phenoxymethyl)oxirane,"InChI=1S/C9H10O2/c1-2-4-8(5-3-1)10-6-9-7-11-9/h1-5,9H,6-7H2",FQYUMYWMJTYZTK-UHFFFAOYSA-N,C1OC1COc2ccccc2,-1.796392183,0.0,1.0,G1,150.177,1.4642,41.677,11.0,2.0,0.0,2.0,3.0,58.0,1.0,1.0,1.0,2.0,21.76,65.74748877,1.85119114,216.2641593
6494,B-3481,pymetrozine,"InChI=1S/C10H11N5O/c1-8-7-15(10(16)14-13-8)12-6-9-3-2-4-11-5-9/h2-6H,7H2,1H3,(H,14,16)/b12-6+",QHMTXANCGGJZRX-WUXMJOGZSA-N,CC1=NNC(=O)N(C1)\N=C\c2cccnc2,-2.8745,0.0,1.0,G1,217.232,0.8166,60.1777,16.0,4.0,1.0,6.0,2.0,82.0,1.0,0.0,1.0,2.0,69.95,92.67206548,2.074222967,439.782428
4635,B-1384,"3,3-dimethyl-1-butanol","InChI=1S/C6H14O/c1-6(2,3)4-5-7/h7H,4-5H2,1-3H3",DUXCSEISVMREAX-UHFFFAOYSA-N,CC(C)(C)CCO,-1.1308,0.3154,2.0,G3,102.177,1.4149,31.1578,7.0,1.0,1.0,1.0,1.0,44.0,0.0,0.0,0.0,0.0,20.23,45.35819535,3.154490065,42.63193445
4510,B-1231,"2,3'-bipyridine",InChI=1S/C10H8N2/c1-2-7-12-10(5-1)9-4-3-6-11-8-9/h1-8H,VEKIYFGCEAJDDT-UHFFFAOYSA-N,c1ccc(nc1)c2cccnc2,-0.5916,0.0,1.0,G1,156.188,2.1436,47.468,12.0,2.0,0.0,2.0,1.0,58.0,2.0,0.0,0.0,2.0,25.78,70.92779329,2.45714948,305.2315896
4143,B-780,"phenol, 2,4-dichloro-3,5-dimethyl-","InChI=1S/C8H8Cl2O/c1-4-3-6(11)8(10)5(2)7(4)9/h3,11H,1-2H3",IYOLBFFHPZOQGW-UHFFFAOYSA-N,Cc1cc(O)c(Cl)c(C)c1Cl,-2.9801,0.0,1.0,G1,191.057,3.31584,47.6008,11.0,1.0,1.0,3.0,0.0,60.0,1.0,0.0,0.0,1.0,20.23,75.56205355,3.455546484,268.3837992
5279,B-2123,"hexanedioic acid, 2,5-dimercapto-","InChI=1S/C6H10O4S2/c7-5(8)3(11)1-2-4(12)6(9)10/h3-4,11-12H,1-2H2,(H,7,8)(H,9,10)",SUVZGLSQFGNBQI-UHFFFAOYSA-N,OC(=O)C(S)CCC(S)C(O)=O,-2.4758,0.0,1.0,G1,210.276,0.5326,50.0536,12.0,4.0,4.0,6.0,5.0,70.0,0.0,0.0,0.0,0.0,74.6,80.78560663,3.680658332,162.3868988
9388,F-731,(3Z)-3-hydroxyimino-2-nitroinden-1-one,"InChI=1S/C9H6N2O4/c12-9-6-4-2-1-3-5(6)7(10-13)8(9)11(14)15/h1-4,8,13H/b10-7-",SIFGOGCSHSLASW-YFHOEESVSA-N,C1=CC=C2C(=C1)/C(=N/O)/C(C2=O)[N+](=O)[O-],-2.68,0.0,1.0,G1,206.157,0.7065,49.8784,15.0,5.0,1.0,6.0,1.0,76.0,1.0,0.0,1.0,2.0,92.8,83.97849087,2.640912151,480.7556178
1434,A-2474,"(2R)-2-[(2R,3R,4S)-3,4-dihydroxyoxolan-2-yl]-2-hydroxyethyl dodecanoate","InChI=1S/C18H34O6/c1-2-3-4-5-6-7-8-9-10-11-16(21)23-13-15(20)18-17(22)14(19)12-24-18/h14-15,17-20,22H,2-13H2,1H3/t14-,15?,17+,18-/m1/s1",LWZFANDGMFTDAV-IOVMHBDKSA-N,CCCCCCCCCCCC(=O)OCC(O)[C@H]1OC[C@@H](O)[C@@H]1O,-5.06253686,0.0,1.0,G1,346.464,1.932,90.5634,24.0,6.0,3.0,6.0,13.0,142.0,0.0,1.0,1.0,1.0,96.22,144.7087496,1.963774227,335.470675
2817,A-4709,"2,6-dimethyloct-7-en-2-ol","InChI=1S/C10H20O/c1-5-9(2)7-6-8-10(3,4)11/h5,9,11H,1,6-8H2,2-4H3",XSNQECSCDATQEL-UHFFFAOYSA-N,CC(CCCC(C)(C)O)C=C,-2.221207241,0.0,1.0,G1,156.269,2.7497,49.5098,11.0,1.0,1.0,1.0,5.0,66.0,0.0,0.0,0.0,0.0,20.23,70.12836078,3.345355728,110.5314097
3256,A-5363,piperidine,"InChI=1S/C5H11N/c1-2-4-6-5-3-1/h6H,1-5H2",NQRYJNQNLNOLGT-UHFFFAOYSA-N,C1CCNCC1,1.069815348,0.0,1.0,G1,85.15,0.7599,26.7207,6.0,1.0,1.0,1.0,0.0,36.0,0.0,1.0,1.0,1.0,12.03,38.74305052,2.0,19.40990953
6725,B-3907,benzyl acetate,"InChI=1S/C9H10O2/c1-8(10)11-7-9-5-3-2-4-6-9/h2-6H,7H2,1H3",QUKGYYKBILRGFE-UHFFFAOYSA-N,CC(=O)OCc1ccccc1,-1.6853,0.0,1.0,G1,150.177,1.7497,41.912,11.0,2.0,0.0,2.0,2.0,58.0,1.0,0.0,0.0,1.0,26.3,65.80129679,2.453018744,228.5778659
24,A-32,3-[2-(ethylamino)-1-hydroxyethyl]phenol,"InChI=1S/C10H15NO2/c1-2-11-7-10(13)8-4-3-5-9(12)6-8/h3-6,10-13H,2,7H2,1H3",SQVIAVUSQAWMKL-UHFFFAOYSA-N,CCNCC(O)c1cccc(O)c1,-3.45410264,0.0,1.0,G1,181.235,1.0351,51.6103,13.0,3.0,3.0,3.0,4.0,72.0,1.0,0.0,0.0,1.0,52.49,78.02950127,2.597150821,262.8565878
1996,A-3292,sodium 3-[[4-[(2-ethoxy-5-methylphenyl)azo]-1-naphthyl]azo]benzenesulphonate,"InChI=1S/C25H22N4O4S.Na/c1-3-33-25-14-11-17(2)15-24(25)29-28-23-13-12-22(20-9-4-5-10-21(20)23)27-26-18-7-6-8-19(16-18)34(30,31)32;/h4-16H,3H2,1-2H3,(H,30,31,32);/q;+1/p-1",PHBKXNWUWOCVEI-UHFFFAOYSA-M,[Na+].CCOc1ccc(C)cc1N=Nc2ccc(N=Nc3cccc(c3)[S]([O-])(=O)=O)c4ccccc24,-1.847135544,0.0,1.0,G1,496.524,4.28582,129.0532,35.0,8.0,0.0,10.0,7.0,172.0,4.0,0.0,0.0,4.0,115.87,225.371219,3.42e-06,1521.443328
1787,A-2933,methyl 2-aminobenzoate,"InChI=1S/C8H9NO2/c1-11-8(10)6-4-2-3-5-7(6)9/h2-5H,9H2,1H3",VAMXMNNIEUEQDV-UHFFFAOYSA-N,COC(=O)c1ccccc1N,-1.733847045,0.0,1.0,G1,151.165,1.0554,42.1939,11.0,3.0,1.0,3.0,1.0,58.0,1.0,0.0,0.0,1.0,52.32,64.77624537,3.032662156,270.5494976
5363,B-2219,"diethylamine, hydrobromide","InChI=1S/C4H11N.BrH/c1-3-5-4-2;/h5H,3-4H2,1-2H3;1H",AATGHKSFEUVOPF-UHFFFAOYSA-N,[Br-].CC[NH2+]CC,0.8123,0.0,1.0,G1,154.051,-3.4064,23.0074,6.0,0.0,1.0,2.0,2.0,40.0,0.0,0.0,0.0,0.0,16.61,49.89664167,0.0,15.01955001
409,A-698,zinc(2+) ion didodecanoate,"InChI=1S/2C12H24O2.Zn/c2*1-2-3-4-5-6-7-8-9-10-11-12(13)14;/h2*2-11H2,1H3,(H,13,14);/q;;+2/p-2",GPYYEEJOMCKTPR-UHFFFAOYSA-L,[Zn++].CCCCCCCCCCCC([O-])=O.CCCCCCCCCCCC([O-])=O,-4.950531484,0.0,1.0,G1,464.018,5.3119,113.702,29.0,4.0,0.0,5.0,20.0,168.0,0.0,0.0,0.0,0.0,80.26,192.9335906,-4.51e-07,302.8423488
4097,B-718,hydrazobenzene,"InChI=1S/C12H12N2/c1-3-7-11(8-4-1)13-14-12-9-5-2-6-10-12/h1-10,13-14H",YBQZXXMEJHZYMB-UHFFFAOYSA-N,N(Nc1ccccc1)c2ccccc2,-2.921,0.0,1.0,G1,184.242,3.1256,60.1294,14.0,2.0,2.0,2.0,3.0,70.0,2.0,0.0,0.0,2.0,24.06,83.55835771,1.957475896,330.5520167
5145,B-1973,"benzoic acid, 2-hydroxy-5-(phenylazo)-","InChI=1S/C13H10N2O3/c16-12-7-6-10(8-11(12)13(17)18)15-14-9-4-2-1-3-5-9/h1-8,14H,(H,17,18)/b15-10+",RHNZXOLQSPSLLQ-XNTDXEJSSA-N,OC(=O)C1=C/C(C=CC1=O)=N/Nc2ccccc2,-3.0559,0.0,1.0,G1,242.234,1.6044,67.3655,18.0,4.0,2.0,5.0,3.0,90.0,1.0,0.0,1.0,2.0,78.76,103.1335593,2.168730325,571.1589699
8196,C-2169,"3-(aziridin-1-yl)-4,6-dinitro-n-(isobutyl)benzamide","InChI=1S/C13H16N4O5/c1-8(2)7-14-13(18)9-5-11(15-3-4-15)12(17(21)22)6-10(9)16(19)20/h5-6,8H,3-4,7H2,1-2H3,(H,14,18)",RRIIHXZPZQGCGU-UHFFFAOYSA-N,CC(C)CNC(=O)C1=CC(=C(C=C1[N+]([O-])=O)[N+]([O-])=O)N2CC2,-3.85,0.0,1.0,G1,308.294,1.7088,79.135,22.0,6.0,1.0,9.0,6.0,118.0,1.0,1.0,1.0,2.0,118.39,125.7573362,2.46302203,639.5627745
6643,B-3721,benzilic acid,"InChI=1S/C14H12O3/c15-13(16)14(17,11-7-3-1-4-8-11)12-9-5-2-6-10-12/h1-10,17H,(H,15,16)",UKXSKSHDVLQNKG-UHFFFAOYSA-N,OC(=O)C(O)(c1ccccc1)c2ccccc2,-2.2092,0.0,1.0,G1,228.247,2.0071,63.5186,17.0,2.0,2.0,3.0,3.0,86.0,2.0,0.0,0.0,2.0,57.53,98.96837116,2.594265293,466.005236
4879,B-1683,"hydrazinecarboxamide, 2-cyclohexylidene-","InChI=1S/C7H13N3O/c8-7(11)10-9-6-4-2-1-3-5-6/h1-5H2,(H3,8,10,11)",KZDDDHJBINUIKQ-UHFFFAOYSA-N,NC(=O)NN=C1CCCCC1,-1.4127,0.0,1.0,G1,155.201,0.9748,43.2391,11.0,2.0,2.0,4.0,1.0,62.0,0.0,1.0,1.0,1.0,67.48,65.83980605,2.315378227,168.5244996
8421,C-2495,naproxen-derivat 3 i,"InChI=1S/C25H27NO5/c1-16(19-9-10-21-15-22(29-3)12-11-20(21)14-19)24(27)30-17(2)31-25(28)23(26)13-18-7-5-4-6-8-18/h4-12,14-17,23H,13,26H2,1-3H3",AJWHQEKVIAEOBU-UHFFFAOYSA-N,COC1=CC=C2C=C(C=CC2=C1)C(C)C(=O)OC(C)OC(=O)C(N)CC3=CC=CC=C3,-3.5,0.0,1.0,G1,421.493,3.9543,118.6824,31.0,6.0,1.0,6.0,8.0,162.0,3.0,0.0,0.0,3.0,87.85,181.4582115,1.56795616,1050.221524
9949,I-24,chlorzoxazone,"InChI=1S/C7H4ClNO2/c8-4-1-2-6-5(3-4)9-7(10)11-6/h1-3H,(H,9,10)",TZFWDZFKRBELIQ-UHFFFAOYSA-N,c1cc2c(cc1Cl)[nH]c(=O)o2,-2.66,0.085,2.0,G3,169.567,1.7745,41.8447,11.0,2.0,1.0,4.0,0.0,56.0,2.0,0.0,0.0,2.0,46.0,66.59183322,2.920939355,442.8824541
5758,B-2660,dipropylene glycol,"InChI=1S/C6H14O3/c1-3-5(7)9-6(8)4-2/h5-8H,3-4H2,1-2H3",QYSXYAURTRCDJU-UHFFFAOYSA-N,CCC(O)OC(O)CC,0.8723,0.0,1.0,G1,134.175,0.4598,33.6806,9.0,3.0,2.0,3.0,4.0,56.0,0.0,0.0,0.0,0.0,49.69,55.26597433,3.223046904,57.32331253
1599,A-2685,"(2R)-2-[(2R,3R,4S)-3,4-dihydroxyoxolan-2-yl]-2-hydroxyethyl hexadecanoate","InChI=1S/C22H42O6/c1-2-3-4-5-6-7-8-9-10-11-12-13-14-15-20(25)27-17-19(24)22-21(26)18(23)16-28-22/h18-19,21-24,26H,2-17H2,1H3/t18-,19?,21+,22-/m1/s1",IYFATESGLOUGBX-CBOZIWPYSA-N,CCCCCCCCCCCCCCCC(=O)OCC(O)[C@H]1OC[C@@H](O)[C@@H]1O,-6.905873561,0.0,1.0,G1,402.572,3.4924,109.0314,28.0,6.0,3.0,6.0,17.0,166.0,0.0,1.0,1.0,1.0,96.22,170.1685181,1.863690307,389.2232673
5343,B-2194,terbacil,"InChI=1S/C9H13ClN2O2/c1-5-6(10)7(13)12(8(14)11-5)9(2,3)4/h1-4H3,(H,11,14)",NBQCNZYJJMBDKY-UHFFFAOYSA-N,CC1=C(Cl)C(=O)N(C(=O)N1)C(C)(C)C,-2.4845,0.0,1.0,G1,216.668,1.25342,56.0657,14.0,3.0,1.0,5.0,0.0,78.0,1.0,0.0,0.0,1.0,54.86,86.53169157,3.711923181,465.1710153
1792,A-2942,"benzene-1,3,5-tricarboxylic acid","InChI=1S/C9H6O6/c10-7(11)4-1-5(8(12)13)3-6(2-4)9(14)15/h1-3H,(H,10,11)(H,12,13)(H,14,15)",QMKYBPDZANOJGF-UHFFFAOYSA-N,OC(=O)c1cc(cc(c1)C(O)=O)C(O)=O,-1.942299553,0.519849776,2.0,G2,210.141,0.7812,47.3199,15.0,3.0,3.0,6.0,3.0,78.0,1.0,0.0,0.0,1.0,111.9,83.39349702,3.387380075,368.9086864
1692,A-2798,2-[(E)-2-(2-methoxy-4-{3-methoxy-4-[(E)-2-[2-oxo-1-(phenylcarbamoyl)propyl]diazen-1-yl]phenyl}phenyl)diazen-1-yl]-3-oxo-N-phenylbutanamide,"InChI=1S/C34H32N6O6/c1-21(41)31(33(43)35-25-11-7-5-8-12-25)39-37-27-17-15-23(19-29(27)45-3)24-16-18-28(30(20-24)46-4)38-40-32(22(2)42)34(44)36-26-13-9-6-10-14-26/h5-20,31-32H,1-4H3,(H,35,43)(H,36,44)",DMPXHEMGDYKSFL-UHFFFAOYSA-N,COc1cc(ccc1N=NC(C(C)=O)C(=O)Nc2ccccc2)c3ccc(N=NC(C(C)=O)C(=O)Nc4ccccc4)c(OC)c3,-8.616766696,0.0,1.0,G1,620.666,6.7308,173.0954,46.0,10.0,2.0,12.0,13.0,234.0,4.0,0.0,0.0,4.0,160.24,265.1185658,1.527448689,1644.867677
5859,B-2781,"1,1-bis(p-meo-ph)-2-nitropropane","InChI=1S/C17H19NO4/c1-12(18(19)20)17(13-4-8-15(21-2)9-5-13)14-6-10-16(22-3)11-7-14/h4-12,17H,1-3H3",PFPRAVYUXJWMGK-UHFFFAOYSA-N,COc1ccc(cc1)C(C(C)[N+]([O-])=O)c2ccc(OC)cc2,-4.5446,0.0,1.0,G1,301.342,3.5009,84.2874,22.0,4.0,0.0,5.0,6.0,116.0,2.0,0.0,0.0,2.0,61.6,129.1932741,2.419993368,574.6121269
223,A-378,"2,6-dimethylheptan-2-ol","InChI=1S/C9H20O/c1-8(2)6-5-7-9(3,4)10/h8,10H,5-7H2,1-4H3",HGDVHRITTGWMJK-UHFFFAOYSA-N,CC(C)CCCC(C)(C)O,-2.286983634,0.0,1.0,G1,144.258,2.5836,44.9868,10.0,1.0,1.0,1.0,4.0,62.0,0.0,0.0,0.0,0.0,20.23,64.4530217,3.205455337,79.21928095
919,A-1585,2-methyl-1-[4-(methylsulfanyl)phenyl]-2-(morpholin-4-yl)propan-1-one,"InChI=1S/C15H21NO2S/c1-15(2,16-8-10-18-11-9-16)14(17)12-4-6-13(19-3)7-5-12/h4-7H,8-11H2,1-3H3",LWRBVKNFOYUCNP-UHFFFAOYSA-N,CSc1ccc(cc1)C(=O)C(C)(C)N2CCOCC2,-4.193381143,0.0,1.0,G1,279.405,2.702,79.0245,19.0,4.0,0.0,4.0,4.0,104.0,1.0,1.0,1.0,2.0,29.54,118.868062,2.154650095,435.9637257
3606,A-6037,"N-{2-[(E)-2-(2-bromo-4,6-dinitrophenyl)diazen-1-yl]-5-(diethylamino)phenyl}acetamide","InChI=1S/C18H19BrN6O5/c1-4-23(5-2)12-6-7-15(16(9-12)20-11(3)26)21-22-18-14(19)8-13(24(27)28)10-17(18)25(29)30/h6-10H,4-5H2,1-3H3,(H,20,26)",WFFKSTRPZWRBEW-UHFFFAOYSA-N,CCN(CC)c1ccc(N=Nc2c(Br)cc(cc2[N+]([O-])=O)[N+]([O-])=O)c(NC(C)=O)c1,-7.379569278,0.0,1.0,G1,479.291,5.4855,115.9335,30.0,8.0,1.0,12.0,8.0,158.0,2.0,0.0,0.0,2.0,143.34,179.7696449,2.543865699,1022.366823
9666,F-1130,"5-[2-(2-aminopurin-9-yl)ethyl]-1,3-dioxan-2-one","InChI=1S/C11H13N5O3/c12-10-13-3-8-9(15-10)16(6-14-8)2-1-7-4-18-11(17)19-5-7/h3,6-7H,1-2,4-5H2,(H2,12,13,15)",OAQJLOZJYFGWIC-UHFFFAOYSA-N,NC1=NC2=C(C=N1)N=CN2CCC1COC(=O)OC1,-1.43,0.0,1.0,G1,263.257,0.5816,65.1424,19.0,8.0,1.0,8.0,3.0,100.0,2.0,1.0,1.0,3.0,105.15,108.1034683,1.680681606,601.3965065
1836,A-3002,oxalic acid,"InChI=1S/C2H2O4/c3-1(4)2(5)6/h(H,3,4)(H,5,6)",MUBZPKHOEPUJKR-UHFFFAOYSA-N,OC(=O)C(O)=O,0.07901721,0.585795927,3.0,G4,90.034,-0.8444,15.2716,6.0,2.0,2.0,4.0,0.0,34.0,0.0,0.0,0.0,0.0,74.6,33.01570485,3.567703455,71.54887502
8347,C-2385,2-carboxy-7-methylthioxanthone; 7-methylthioxanthone-2-carboxylic; 7-methylsulfanyl-9-oxo-9h-xanthene-2-carboxylic acid acid,"InChI=1S/C15H10O4S/c1-20-9-3-5-13-11(7-9)14(16)10-6-8(15(17)18)2-4-12(10)19-13/h2-7H,1H3,(H,17,18)",GEMHNGLORSISHO-UHFFFAOYSA-N,CSC1=CC=C2OC3=C(C=C(C=C3)C(O)=O)C(=O)C2=C1,-5.32,0.0,1.0,G1,286.308,3.3663,78.7303,20.0,4.0,1.0,5.0,2.0,100.0,3.0,0.0,0.0,3.0,67.51,117.5698212,2.421806628,895.393706
6684,B-3795,cyclohexanol,"InChI=1S/C6H12O/c7-6-4-2-1-3-5-6/h6-7H,1-5H2",HPXRVTGHNJAIIH-UHFFFAOYSA-N,OC1CCCCC1,-0.3774,0.081909252,3.0,G5,100.161,1.3114,29.0918,7.0,1.0,1.0,1.0,0.0,42.0,0.0,1.0,1.0,1.0,20.23,44.3523642,2.12291795,46.14170945
11,A-18,2-methyl-1-phenylpropan-2-yl acetate,"InChI=1S/C12H16O2/c1-10(13)14-12(2,3)9-11-7-5-4-6-8-11/h4-8H,9H2,1-3H3",FLUWAIIVLCVEKF-UHFFFAOYSA-N,CC(=O)OC(C)(C)Cc1ccccc1,-2.394649969,0.0,1.0,G1,192.258,2.5708,55.991,14.0,2.0,0.0,2.0,3.0,76.0,1.0,0.0,0.0,1.0,26.3,84.89612314,2.633870023,301.3575849
7833,C-1589,"2-hydroxy-3,3,3-trichloropropanoic acid;  beta,beta,beta-trichlorolactic  acid;","InChI=1S/C3H3Cl3O3/c4-3(5,6)1(7)2(8)9/h1,7H,(H,8,9)",PBXLMODGBAXKQR-UHFFFAOYSA-N,OC(C(O)=O)C(Cl)(Cl)Cl,0.36,0.0,1.0,G1,193.413,0.8021,33.9326,9.0,2.0,2.0,6.0,1.0,54.0,0.0,0.0,0.0,0.0,57.53,66.12892354,4.040215641,117.9616054
6423,B-3407,"acetamide, 2-(benzoyloxy)-n-propyl-","InChI=1S/C12H15NO3/c1-2-8-13-11(14)9-16-12(15)10-6-4-3-5-7-10/h3-7H,2,8-9H2,1H3,(H,13,14)",OLCZSUFMDPGDIL-UHFFFAOYSA-N,CCCNC(=O)COC(=O)c1ccccc1,-2.5387,0.0,1.0,G1,221.256,1.3696,60.0252,16.0,3.0,1.0,4.0,5.0,86.0,1.0,0.0,0.0,1.0,55.4,94.60750742,2.332341837,348.5413224
5577,B-2461,noxythiolin,"InChI=1S/C3H8N2OS/c1-4-7-3-5-2-6/h4-6H,2H2,1H3",BBJPKBLYPSYKMT-UHFFFAOYSA-N,CN[S]#CNCO,-0.0798,0.0,1.0,G1,120.177,-0.6899,30.7602,7.0,3.0,3.0,4.0,1.0,42.0,0.0,0.0,0.0,0.0,44.29,46.46102249,2.908625128,84.67103446
6738,B-3942,acrylonitrile,"InChI=1S/C3H3N/c1-2-3-4/h2H,1H2",NLHHRLWOUZZQLW-UHFFFAOYSA-N,C=CC#N,0.1474,0.0,1.0,G1,53.064,0.69598,15.81,4.0,1.0,0.0,1.0,0.0,20.0,0.0,0.0,0.0,0.0,23.79,25.17211191,2.92178368,48.79398752
6390,B-3372,"2,6-piperidinedicarboxamide","InChI=1S/C7H13N3O2/c8-6(11)4-2-1-3-5(10-4)7(9)12/h4-5,10H,1-3H2,(H2,8,11)(H2,9,12)",LOVQGUOGVLKMQT-UHFFFAOYSA-N,NC(=O)C1CCCC(N1)C(N)=O,0.2893,0.0,1.0,G1,171.2,-1.5323,42.9515,12.0,3.0,3.0,5.0,2.0,68.0,0.0,1.0,1.0,1.0,98.21,70.47576034,2.511165392,184.8281693
1296,A-2251,(2-methoxy-5-nitrophenyl) acetate,"InChI=1S/C9H9NO5/c1-6(11)15-9-5-7(10(12)13)3-4-8(9)14-2/h3-5H,1-2H3",XBFBLYSAWSLPRY-UHFFFAOYSA-N,COc1ccc(cc1OC(C)=O)[N+]([O-])=O,-2.946604067,0.0,1.0,G1,211.173,1.5287,50.9574,15.0,5.0,0.0,6.0,3.0,80.0,1.0,0.0,0.0,1.0,78.67,85.56781774,3.123368127,401.4892192
9496,F-873,3-Fluoro-n-hydroxy-n-phenylbenzamide,"InChI=1S/C13H10FNO2/c14-11-6-4-5-10(9-11)13(16)15(17)12-7-2-1-3-8-12/h1-9,17H",VAOSSGQUPGENMP-UHFFFAOYSA-N,O=C(C1=CC(F)=CC=C1)N(O)C1=CC=CC=C1,-2.6,0.0,1.0,G1,231.226,2.8617,61.438,17.0,2.0,1.0,4.0,2.0,86.0,2.0,0.0,0.0,2.0,40.54,97.68860286,2.266962414,527.9524886
4779,B-1563,"benzene, 1,2,3,4-tetrachloro-5,6-dimethoxy-",InChI=1S/C8H6Cl4O2/c1-13-7-5(11)3(9)4(10)6(12)8(7)14-2/h1-2H3,NCYHCGGUQGDEQW-UHFFFAOYSA-N,COc1c(Cl)c(Cl)c(Cl)c(Cl)c1OC,-5.2394,0.0,1.0,G1,275.946,4.3174,59.586,14.0,2.0,0.0,6.0,2.0,78.0,1.0,0.0,0.0,1.0,18.46,101.6014427,3.565685836,330.0942913
5112,B-1939,"1-chloro-1,2,2,2-tetrafluoroethane","InChI=1S/C2HClF4/c3-1(4)2(5,6)7/h1H",BOUGCJDAQLKBQH-UHFFFAOYSA-N,FC(Cl)C(F)(F)F,-1.959,0.0,1.0,G1,136.475,2.0831,16.804,7.0,0.0,0.0,5.0,0.0,44.0,0.0,0.0,0.0,0.0,0.0,42.06960098,3.541196965,55.20035948
6857,B-4127,"2,2',3,4-tetrachlorobiphenyl",InChI=1S/C12H6Cl4/c13-9-4-2-1-3-7(9)8-5-6-10(14)12(16)11(8)15/h1-6H,SEWHDNLIHDBVDZ-UHFFFAOYSA-N,Clc1ccc(c(Cl)c1Cl)c2ccccc2Cl,-6.8299,0.0,1.0,G1,291.992,5.9672,71.918,16.0,0.0,0.0,4.0,1.0,82.0,2.0,0.0,0.0,2.0,0.0,113.7015622,2.664241835,534.5371241
1821,A-2977,sodium 4-[(2-hydroxy-1-naphthyl)diazenyl]-3-methylbenzenesulfonate,"InChI=1S/C17H14N2O4S.Na/c1-11-10-13(24(21,22)23)7-8-15(11)18-19-17-14-5-3-2-4-12(14)6-9-16(17)20;/h2-10,18H,1H3,(H,21,22,23);/q;+1/p-1/b19-17+;",SIHMAENIPOJURU-ZJSKVYKZSA-M,[Na+].Cc1cc(ccc1N\N=C2\C(=O)C=Cc3ccccc23)[S]([O-])(=O)=O,-0.43660043,0.0,1.0,G1,364.358,-0.68478,89.7849,25.0,6.0,1.0,8.0,3.0,122.0,2.0,0.0,1.0,3.0,98.66,167.2366521,2.25e-06,997.4574818
5267,B-2107,"phosphinic acid, di-4-morpholinyl-, phenyl ester","InChI=1S/C14H21N2O4P/c17-21(15-6-10-18-11-7-15,16-8-12-19-13-9-16)20-14-4-2-1-3-5-14/h1-5H,6-13H2",ARRSANOSOGNTIJ-UHFFFAOYSA-N,O=[P](Oc1ccccc1)(N2CCOCC2)N3CCOCC3,0.3925,0.0,1.0,G1,312.306,1.8379,79.4605,21.0,4.0,0.0,7.0,4.0,116.0,1.0,2.0,2.0,3.0,51.24,124.6882697,1.833535991,465.0071915
5715,B-2614,tetrachlorvinphos,"InChI=1S/C10H9Cl4O4P/c1-16-19(15,17-2)18-10(5-11)6-3-8(13)9(14)4-7(6)12/h3-5H,1-2H3/b10-5+",UBCKGWBNUIFUST-BJMVGYQFSA-N,CO[P](=O)(OC)OC(=C/Cl)/c1cc(Cl)c(Cl)cc1Cl,-4.5221,0.0,1.0,G1,365.964,5.6015,78.0115,19.0,4.0,0.0,9.0,5.0,106.0,1.0,0.0,0.0,1.0,44.76,130.3048798,3.195069219,538.5763442
7479,C-854,n-(4-nitrophenyl)benzenesulfonamide,"InChI=1S/C12H10N2O4S/c15-14(16)11-8-6-10(7-9-11)13-19(17,18)12-4-2-1-3-5-12/h1-9,13H",SWSJPCDGJYPPCS-UHFFFAOYSA-N,[O-][N+](=O)C1=CC=C(N[S](=O)(=O)C2=CC=CC=C2)C=C1,-3.93,0.0,1.0,G1,278.289,2.3956,70.3469,19.0,4.0,1.0,7.0,4.0,98.0,2.0,0.0,0.0,2.0,89.31,109.4521111,2.236739632,681.4291395
4254,B-930,"1,1,1-trifluoro-2-propanol","InChI=1S/C3H5F3O/c1-2(7)3(4,5)6/h2,7H,1H3",GILIYJDBJZWGBG-UHFFFAOYSA-N,CC(O)C(F)(F)F,0.3094,0.0,1.0,G1,114.066,0.9295,17.7358,7.0,1.0,1.0,4.0,0.0,44.0,0.0,0.0,0.0,0.0,20.23,38.75997522,3.541196965,55.69058447
8370,C-2423,n3-[(3-hydroxy-2-hydroxymethyl)propanoyloxymethyl]phenytoin,"InChI=1S/C20H20N2O6/c23-11-14(12-24)17(25)28-13-22-18(26)20(21-19(22)27,15-7-3-1-4-8-15)16-9-5-2-6-10-16/h1-10,14,23-24H,11-13H2,(H,21,27)",WTFDBEWCLSDGPA-UHFFFAOYSA-N,OCC(CO)C(=O)OCN1C(=O)NC(C1=O)(C2=CC=CC=C2)C3=CC=CC=C3,-2.21,0.0,1.0,G1,384.388,0.5835,97.6623,28.0,6.0,3.0,8.0,7.0,146.0,2.0,1.0,1.0,3.0,116.17,160.898478,1.925366929,812.0143377
5106,B-1932,endothion,"InChI=1S/C9H13O6PS/c1-12-9-5-15-7(4-8(9)10)6-17-16(11,13-2)14-3/h4-5H,6H2,1-3H3",YCAGGFXSFQFVQL-UHFFFAOYSA-N,COC1=COC(=CC1=O)CS[P](=O)(OC)OC,0.7286,0.0,1.0,G1,280.238,2.2825,64.4495,17.0,7.0,0.0,8.0,6.0,96.0,1.0,0.0,0.0,1.0,74.97,102.5327813,2.737375682,462.7990374
6030,B-2974,"2-butenoic acid, 2-chloro-, (z)-","InChI=1S/C4H5ClO2/c1-2-3(5)4(6)7/h2H,1H3,(H,6,7)/b3-2-",WMDBQMYVAIBBDH-IHWYPQMZSA-N,C\C=C(/Cl)C(O)=O,0.9189,0.0,1.0,G1,120.535,1.2136,27.2458,7.0,1.0,1.0,3.0,1.0,40.0,0.0,0.0,0.0,0.0,37.3,46.40349642,3.816582973,106.2574223
7105,B-4502,eriodictyol,"InChI=1S/C15H12O6/c16-8-4-11(19)15-12(20)6-13(21-14(15)5-8)7-1-2-9(17)10(18)3-7/h1-5,13,16-19H,6H2/t13-/m0/s1",SBHXYTNGIZCORC-ZDUSSCGKSA-N,Oc1cc(O)c2C(=O)C[C@H](Oc2c1)c3ccc(O)c(O)c3,-3.6147,0.0,1.0,G1,288.255,2.2155,71.8597,21.0,6.0,4.0,6.0,1.0,108.0,2.0,0.0,1.0,3.0,107.22,119.0294949,2.01392325,737.1839684