,ID,Name,InChI,InChIKey,SMILES,Solubility,SD,Ocurrences,Group,MolWt,MolLogP,MolMR,HeavyAtomCount,NumHAcceptors,NumHDonors,NumHeteroatoms,NumRotatableBonds,NumValenceElectrons,NumAromaticRings,NumSaturatedRings,NumAliphaticRings,RingCount,TPSA,LabuteASA,BalabanJ,BertzCT
6635,B-3701,"2,4-dimethylphenol","InChI=1S/C8H10O/c1-6-3-4-8(9)7(2)5-6/h3-5,9H,1-2H3",KUFFULVDNCHOFZ-UHFFFAOYSA-N,Cc1ccc(O)c(C)c1,-1.191,0.024017483,2.0,G3,122.167,2.00904,37.5808,9.0,1.0,1.0,1.0,0.0,48.0,1.0,0.0,0.0,1.0,20.23,54.9555211,3.17167803,215.8076621
1863,A-3061,"ethyl N,N-diphenylcarbamate","InChI=1S/C15H15NO2/c1-2-18-15(17)16(13-9-5-3-6-10-13)14-11-7-4-8-12-14/h3-12H,2H2,1H3",HKTSLDUAGCAISP-UHFFFAOYSA-N,CCOC(=O)N(c1ccccc1)c2ccccc2,-3.969239559,0.0,1.0,G1,241.29,3.9812,72.045,18.0,2.0,0.0,3.0,3.0,92.0,2.0,0.0,0.0,2.0,29.54,106.6182247,2.384601326,456.9167555
1250,A-2162,aluminium(3+) ion tris(N-nitroso-N-oxidoaniline),InChI=1S/3C6H5N2O2.Al/c3*9-7-8(10)6-4-2-1-3-5-6;/h3*1-5H;/q3*-1;+3,PMSRCBOGDIMQAT-UHFFFAOYSA-N,[Al+3].[O-]N(N=O)c1ccccc1.[O-]N(N=O)c2ccccc2.[O-]N(N=O)c3ccccc3,-6.194649109,0.0,1.0,G1,438.336,4.6358,120.003,31.0,9.0,0.0,13.0,6.0,156.0,3.0,0.0,0.0,3.0,167.19,186.9496886,4.29e-07,760.7996874
5527,B-2401,1-amino-2-butanol,"InChI=1S/C4H11NO/c1-2-4(6)3-5/h4,6H,2-3,5H2,1H3",KODLUXHSIZOKTG-UHFFFAOYSA-N,CCC(O)CN,1.0499,0.0,1.0,G1,89.138,-0.284,25.3522,6.0,2.0,2.0,2.0,2.0,38.0,0.0,0.0,0.0,0.0,46.25,37.96820182,2.754184786,26.72905595
177,A-304,"6,6-dimethoxy-2,5,5-trimethylhex-2-ene","InChI=1S/C11H22O2/c1-9(2)7-8-11(3,4)10(12-5)13-6/h7,10H,8H2,1-6H3",RDHNTAXPFZIMDN-UHFFFAOYSA-N,COC(OC)C(C)(C)CC=C(C)C,-3.339761604,0.0,1.0,G1,186.295,2.9878,55.635,13.0,2.0,0.0,2.0,5.0,78.0,0.0,0.0,0.0,0.0,18.46,81.9261596,4.27253233,162.9290923
2688,A-4507,2-[(2-aminoethyl)amino]ethan-1-ol,"InChI=1S/C4H12N2O/c5-1-2-6-3-4-7/h6-7H,1-5H2",LHIJANUOQQMGNT-UHFFFAOYSA-N,NCCNCCO,0.982328216,0.0,1.0,G1,104.153,-1.473,29.0099,7.0,3.0,3.0,3.0,4.0,44.0,0.0,0.0,0.0,0.0,58.28,43.518064,2.447472888,28.8707654
7615,C-1144,"1,3-bis(pivaloyloxymethyl)-5-fluorouracil","InChI=1S/C16H23FN2O6/c1-15(2,3)12(21)24-8-18-7-10(17)11(20)19(14(18)23)9-25-13(22)16(4,5)6/h7H,8-9H2,1-6H3",WCEZGNZVJAKFRE-UHFFFAOYSA-N,CC(C)(C)C(=O)OCN1C=C(F)C(=O)N(COC(=O)C(C)(C)C)C1=O,-3.9,0.0,1.0,G1,358.366,1.2427,86.014,25.0,8.0,0.0,9.0,4.0,140.0,1.0,0.0,0.0,1.0,96.6,143.7086617,3.063005285,779.775621
4054,B-656,propoxur,"InChI=1S/C11H15NO3/c1-8(2)14-9-6-4-5-7-10(9)15-11(13)12-3/h4-8H,1-3H3,(H,12,13)",ISRUGXGCCGIOQO-UHFFFAOYSA-N,CNC(=O)Oc1ccccc1OC(C)C,-2.0512,0.0,1.0,G1,209.245,2.192,57.2897,15.0,3.0,1.0,4.0,3.0,82.0,1.0,0.0,0.0,1.0,47.56,89.19458843,2.809453207,336.3598483
6588,B-3599,cumene,"InChI=1S/C9H12/c1-8(2)9-6-4-3-5-7-9/h3-8H,1-2H3",RWGFKTVRMDUZSP-UHFFFAOYSA-N,CC(C)c1ccccc1,-3.2924,0.047888017,3.0,G5,120.195,2.81,40.531,9.0,0.0,0.0,0.0,1.0,48.0,1.0,0.0,0.0,1.0,0.0,56.52622946,2.848234051,162.6530014
6621,B-3663,"2,3,4-trichloronitrobenzene",InChI=1S/C6H2Cl3NO2/c7-3-1-2-4(10(11)12)6(9)5(3)8/h1-2H,BGKIECJVXXHLDP-UHFFFAOYSA-N,[O-][N+](=O)c1ccc(Cl)c(Cl)c1Cl,-3.94,0.0,1.0,G1,226.446,3.555,48.1264,12.0,2.0,0.0,6.0,1.0,64.0,1.0,0.0,0.0,1.0,43.14,82.99417752,3.36122511,339.8102371
3086,A-5146,barium bis(dihydrogenorthophosphate),"InChI=1S/3Ba.2H3O4P/c;;;2*1-5(2,3)4/h;;;2*(H3,1,2,3,4)/q3*+2;;/p-6",WAKZZMMCDILMEF-UHFFFAOYSA-H,[Ba++].[Ba++].[Ba++].[O-][P]([O-])([O-])=O.[O-][P]([O-])([O-])=O,-1.345611894,0.0,1.0,G1,601.924,-6.7916,32.475,13.0,8.0,0.0,13.0,0.0,64.0,0.0,0.0,0.0,0.0,172.5,194.9731856,-2.67e-08,129.6986276
6609,B-3638,p-bromochlorobenzene,InChI=1S/C6H4BrCl/c7-5-1-3-6(8)4-2-5/h1-4H,NHDODQWIKUYWMW-UHFFFAOYSA-N,Clc1ccc(Br)cc1,-3.6298,0.0,1.0,G1,191.455,3.1025,39.152,8.0,0.0,0.0,2.0,0.0,42.0,1.0,0.0,0.0,1.0,0.0,61.60221695,3.032455532,147.3883389
5166,B-1997,"o,p'-dde",InChI=1S/C14H8Cl4/c15-10-7-5-9(6-8-10)13(14(17)18)11-3-1-2-4-12(11)16/h1-8H,ZDYJWDIWLRZXDB-UHFFFAOYSA-N,Clc1ccc(cc1)C(=C(Cl)Cl)c2ccccc2Cl,-6.3563,0.0,1.0,G1,318.03,6.1879,80.632,18.0,0.0,0.0,4.0,2.0,92.0,2.0,0.0,0.0,2.0,0.0,125.7418434,2.590161657,580.9979162
9648,F-1109,"5-(2-chlorophenyl)-7-nitro-1,3-dihydro-1,4-benzodiazepin-2-one","InChI=1S/C15H10ClN3O3/c16-12-4-2-1-3-10(12)15-11-7-9(19(21)22)5-6-13(11)18-14(20)8-17-15/h1-7H,8H2,(H,18,20)",DGBIGWXXNGSACT-UHFFFAOYSA-N,C1C(=O)NC2=C(C=C(C=C2)[N+](=O)[O-])C(=N1)C3=CC=CC=C3Cl,-4.41,0.45535,2.0,G3,315.716,3.0377,83.6841,22.0,4.0,1.0,7.0,2.0,110.0,2.0,0.0,1.0,3.0,84.6,130.1404412,2.23359918,817.4300132
3937,B-447,cloprop,"InChI=1S/C9H9ClO3/c1-6(9(11)12)13-8-4-2-3-7(10)5-8/h2-6H,1H3,(H,11,12)",YNTJKQDWYXUTLZ-UHFFFAOYSA-N,CC(Oc1cccc(Cl)c1)C(O)=O,-2.2232,0.0,1.0,G1,200.621,2.1919,49.1778,13.0,2.0,1.0,4.0,3.0,70.0,1.0,0.0,0.0,1.0,46.53,80.89879677,2.688220173,311.4830533
7923,C-1751,ethyl  vanillate; 4-hydroxy-3-methoxybenzoic acid ethyl ester; vanillic acid ethyl ester,"InChI=1S/C10H12O4/c1-3-14-10(12)7-4-5-8(11)9(6-7)13-2/h4-6,11H,3H2,1-2H3",MWAYRGBWOVHDDZ-UHFFFAOYSA-N,CCOC(=O)C1=CC(=C(O)C=C1)OC,-1.72,0.0,1.0,G1,196.202,1.5775,50.6153,14.0,4.0,1.0,4.0,3.0,76.0,1.0,0.0,0.0,1.0,55.76,82.07401789,2.940794971,332.8939251
6513,B-3500,Acibenzolar-s-methyl,"InChI=1S/C8H6N2OS2/c1-12-8(11)5-3-2-4-6-7(5)13-10-9-6/h2-4H,1H3",UELITFHSCLAHKR-UHFFFAOYSA-N,CSC(=O)c1cccc2nnsc12,-4.4363,0.0,1.0,G1,210.283,2.1945,55.2605,13.0,5.0,0.0,5.0,1.0,66.0,2.0,0.0,0.0,2.0,42.85,83.3167868,2.673253366,452.0956821
9546,F-957,"1,2-di(phenyl)ethane-1,2-dione",InChI=1S/C14H10O2/c15-13(11-7-3-1-4-8-11)14(16)12-9-5-2-6-10-12/h1-10H,WURBFLDFSFBTLW-UHFFFAOYSA-N,O=C(C(=O)C1=CC=CC=C1)C1=CC=CC=C1,-2.8,0.0,1.0,G1,210.232,2.7522,61.545,16.0,2.0,0.0,2.0,3.0,78.0,2.0,0.0,0.0,2.0,34.14,93.54142575,2.278573275,451.2732552
7301,C-308,tetramethrin; phthaltrin,"InChI=1S/C19H25NO4/c1-11(2)9-14-15(19(14,3)4)18(23)24-10-20-16(21)12-7-5-6-8-13(12)17(20)22/h9,14-15H,5-8,10H2,1-4H3",CXBMCYHAMVGWJQ-UHFFFAOYSA-N,CC(C)=CC1C(C(=O)OCN2C(=O)C3=C(CCCC3)C2=O)C1(C)C,-5.26,0.0,1.0,G1,331.412,2.9649,88.498,24.0,4.0,0.0,5.0,4.0,130.0,0.0,1.0,3.0,3.0,63.68,142.2694548,1.611584355,638.8542727
6590,B-3606,n-propylbenzene,"InChI=1S/C9H12/c1-2-6-9-7-4-3-5-8-9/h3-5,7-8H,2,6H2,1H3",ODLMAHJVESYWTB-UHFFFAOYSA-N,CCCc1ccccc1,-3.3622,0.0,1.0,G1,120.195,2.6391,40.437,9.0,0.0,0.0,0.0,2.0,48.0,1.0,0.0,0.0,1.0,0.0,56.52622946,2.61489994,152.9490958
3347,A-5507,4-(4-butylcyclohexyl)cyclohexan-1-one,"InChI=1S/C16H28O/c1-2-3-4-13-5-7-14(8-6-13)15-9-11-16(17)12-10-15/h13-15H,2-12H2,1H3",LDUYZTOYURUHIX-UHFFFAOYSA-N,CCCCC1CCC(CC1)C2CCC(=O)CC2,-6.373645635,0.0,1.0,G1,236.399,4.7423,71.938,17.0,1.0,0.0,1.0,4.0,98.0,0.0,2.0,2.0,2.0,17.07,106.3632425,1.69344378,227.9097336
848,A-1470,N-(2-ethoxyphenyl)-3-hydroxynaphthalene-2-carboxamide,"InChI=1S/C19H17NO3/c1-2-23-18-10-6-5-9-16(18)20-19(22)15-11-13-7-3-4-8-14(13)12-17(15)21/h3-12,21H,2H2,1H3,(H,20,22)",NXIGDUAONGBUKR-UHFFFAOYSA-N,CCOc1ccccc1NC(=O)c2cc3ccccc3cc2O,-5.186601809,0.0,1.0,G1,307.349,4.1964,91.177,23.0,3.0,2.0,4.0,4.0,116.0,3.0,0.0,0.0,3.0,58.56,133.8841515,1.933294387,858.1125818
4027,B-599,"1,4-dichlorobutane",InChI=1S/C4H8Cl2/c5-3-1-2-4-6/h1-4H2,KJDRSWPQXHESDQ-UHFFFAOYSA-N,ClCCCCCl,-0.92,0.0,1.0,G1,127.014,2.2442,30.674,6.0,0.0,0.0,2.0,3.0,38.0,0.0,0.0,0.0,0.0,0.0,48.44060982,2.339092315,17.509775
9736,G-68,1-Butene,"InChI=1S/C4H8/c1-3-4-2/h3H,1,4H2,2H3",VXNZUUAINFGPBY-UHFFFAOYSA-N,CCC=C,-1.94,0.231335907,2.0,G3,56.108,1.5824,20.488,4.0,0.0,0.0,0.0,1.0,24.0,0.0,0.0,0.0,0.0,0.0,27.14447434,2.296835262,14.0
8713,E-182,"2,6-PCB",InChI=1S/C12H8Cl2/c13-10-7-4-8-11(14)12(10)9-5-2-1-3-6-9/h1-8H,IYZWUWBAFUBNCH-UHFFFAOYSA-N,c1ccccc1c2c(Cl)cccc2Cl,-5.21,0.12175,2.0,G3,223.102,4.6604,61.898,14.0,0.0,0.0,2.0,1.0,70.0,2.0,0.0,0.0,2.0,0.0,93.09502978,2.625314488,415.0796467
221,A-376,cobalt(2+) dipropanoate,"InChI=1S/2C3H6O2.Co/c2*1-2-3(4)5;/h2*2H2,1H3,(H,4,5);/q;;+2/p-2",TZWGXFOSKIHUPW-UHFFFAOYSA-L,[Co++].CCC([O-])=O.CCC([O-])=O,-0.437662317,0.0,1.0,G1,205.075,-1.7099,30.596,11.0,4.0,0.0,5.0,2.0,67.0,0.0,0.0,0.0,0.0,80.26,75.80133794,-1.07e-07,99.14991062
2503,A-4185,"2,4,6-trimethylcyclohex-3-ene-1-carbaldehyde","InChI=1S/C10H16O/c1-7-4-8(2)10(6-11)9(3)5-7/h4,6,8-10H,5H2,1-3H3",YJSUCBQWLKRPDL-UHFFFAOYSA-N,CC1CC(=CC(C)C1C=O)C,-1.844063724,0.0,1.0,G1,152.237,2.4237,46.256,11.0,1.0,0.0,1.0,1.0,62.0,0.0,0.0,1.0,1.0,17.07,68.48981797,2.76225729,181.3117986
463,A-816,sodium 2-amino-5-nitrobenzenesulfonate,"InChI=1S/C6H6N2O5S.Na/c7-5-2-1-4(8(9)10)3-6(5)14(11,12)13;/h1-3H,7H2,(H,11,12,13);/q;+1/p-1",VTMRGLXTSDVXAE-UHFFFAOYSA-M,[Na+].Nc1ccc(cc1[S]([O-])(=O)=O)[N+]([O-])=O,-1.767738518,0.0,1.0,G1,240.172,-2.9149,45.472,15.0,6.0,1.0,9.0,2.0,76.0,1.0,0.0,0.0,1.0,126.36,107.4663052,1.96e-06,486.295663
5563,B-2446,"dl-phenylalanine, n-(2-cyanoethyl)-","InChI=1S/C12H14N2O2/c13-7-4-8-14-11(12(15)16)9-10-5-2-1-3-6-10/h1-3,5-6,11,14H,4,8-9H2,(H,15,16)/t11-/m0/s1",RDEPSYXOVXRWGR-NSHDSACASA-N,[O-]C(=O)[C@H](Cc1ccccc1)[NH2+]CCC#N,-1.4939,0.0,1.0,G1,218.256,-1.17532,55.9634,16.0,3.0,1.0,4.0,6.0,84.0,1.0,0.0,0.0,1.0,80.53,94.51925352,2.52069519,370.3551922
7774,C-1453,"2,2',3,4,4',6'-hexachlorodiphenyl  ether",InChI=1S/C12H4Cl6O/c13-5-3-7(15)12(8(16)4-5)19-9-2-1-6(14)10(17)11(9)18/h1-4H,XDAOZRZWYVKIAK-UHFFFAOYSA-N,ClC1=CC(=C(OC2=C(Cl)C(=C(Cl)C=C2)Cl)C(=C1)Cl)Cl,-8.1,0.0,1.0,G1,376.881,7.3993,83.018,19.0,1.0,0.0,7.0,2.0,100.0,2.0,0.0,0.0,2.0,9.23,139.4216399,2.451965639,617.3521142
2244,A-3721,aluminium(3+) ion potassium tetrafluoride,InChI=1S/Al.FH.K/h;1H;/q+3;;+1/p-1,YPYRDLOVFOAQIR-UHFFFAOYSA-M,[F-].[Al+3].[K+],-1.269901072,0.0,1.0,G1,85.078,-6.3728,5.754,3.0,0.0,0.0,3.0,0.0,8.0,0.0,0.0,0.0,0.0,0.0,71.89321841,0.0,4.754887502
3350,A-5511,"11-methyldodecyl 2-{[(3,5-di-tert-butyl-4-hydroxyphenyl)methyl]sulfanyl}acetate","InChI=1S/C30H52O3S/c1-23(2)17-15-13-11-9-10-12-14-16-18-33-27(31)22-34-21-24-19-25(29(3,4)5)28(32)26(20-24)30(6,7)8/h19-20,23,32H,9-18,21-22H2,1-8H3",GBBDRAQIJBCOBP-UHFFFAOYSA-N,CC(C)CCCCCCCCCCOC(=O)CSCc1cc(c(O)c(c1)C(C)(C)C)C(C)(C)C,-6.789589525,0.0,1.0,G1,492.81,8.9305,149.0188,34.0,4.0,1.0,4.0,15.0,196.0,1.0,0.0,0.0,1.0,46.53,214.382425,2.294669389,690.5415941
1018,A-1764,diphenylacetic acid,"InChI=1S/C14H12O2/c15-14(16)13(11-7-3-1-4-8-11)12-9-5-2-6-10-12/h1-10,13H,(H,15,16)",PYHXGXCGESYPCW-UHFFFAOYSA-N,OC(=O)C(c1ccccc1)c2ccccc2,-3.223039886,0.0,1.0,G1,212.248,2.9031,62.3628,16.0,1.0,1.0,2.0,3.0,80.0,2.0,0.0,0.0,2.0,37.3,94.17413741,2.43726518,423.1087192
4144,B-781,"3,5-diiodosalicylic acid","InChI=1S/C7H4I2O3/c8-3-1-4(7(11)12)6(10)5(9)2-3/h1-2,10H,(H,11,12)",DHZVWQPHNWDCFS-UHFFFAOYSA-N,OC(=O)c1cc(I)cc(I)c1O,-3.307,0.0,1.0,G1,389.914,2.2996,60.5001,12.0,2.0,2.0,5.0,1.0,64.0,1.0,0.0,0.0,1.0,57.53,96.07001108,3.373859011,335.6685277
5250,B-2088,"carbamic acid, diethyl-, methyl ester","InChI=1S/C6H13NO2/c1-4-7(5-2)6(8)9-3/h4-5H2,1-3H3",VAGMFMWZIMXAGK-UHFFFAOYSA-N,CCN(CC)C(=O)OC,-0.2918,0.0,1.0,G1,131.175,1.0946,35.326,9.0,2.0,0.0,3.0,2.0,54.0,0.0,0.0,0.0,0.0,29.54,55.5988626,3.643756448,89.05865003
2509,A-4197,"5-methyl-2-phenyl-2,3-dihydro-1H-pyrazol-3-one","InChI=1S/C10H10N2O/c1-8-7-10(13)12(11-8)9-5-3-2-4-6-9/h2-6H,7H2,1H3",QELUYTUMUWHWMC-UHFFFAOYSA-N,CC1=NN(C(=O)C1)c2ccccc2,-1.925085284,0.058499473,2.0,G3,174.203,1.7992,51.654,13.0,2.0,0.0,3.0,1.0,66.0,1.0,0.0,1.0,2.0,32.67,76.6721547,2.326238618,356.4473121
4449,B-1156,ethyl biscoumacetate,"InChI=1S/C22H16O8/c1-2-28-20(25)15(16-18(23)11-7-3-5-9-13(11)29-21(16)26)17-19(24)12-8-4-6-10-14(12)30-22(17)27/h3-10,15,26-27H,2H2,1H3",SEGSDVUVOWIWFX-UHFFFAOYSA-N,CCOC(=O)C(C1=C(O)Oc2ccccc2C1=O)C3=C(O)Oc4ccccc4C3=O,-3.4264,0.0,1.0,G1,408.362,3.0056,106.7736,30.0,8.0,2.0,8.0,4.0,152.0,4.0,0.0,0.0,4.0,127.18,168.1078075,2.089795414,1296.934233
2174,A-3596,(2S)-3-methyl-2-[pentanoyl-[[4-[2-(2H-tetrazol-5-yl)phenyl]phenyl]methyl]amino]butanoic acid,"InChI=1S/C24H29N5O3/c1-4-5-10-21(30)29(22(16(2)3)24(31)32)15-17-11-13-18(14-12-17)19-8-6-7-9-20(19)23-25-27-28-26-23/h6-9,11-14,16,22H,4-5,10,15H2,1-3H3,(H,31,32)(H,25,26,27,28)/t22-/m0/s1",ACWBQPMHZXGDFX-QFIPXVFZSA-N,CCCCC(=O)N(Cc1ccc(cc1)c2ccccc2c3n[nH]nn3)[C@@H](C(C)C)C(O)=O,-2.735926094,0.0,1.0,G1,435.528,4.1617,121.3865,32.0,5.0,2.0,8.0,10.0,168.0,3.0,0.0,0.0,3.0,112.07,187.2105315,1.870560087,1032.052952
8272,C-2272,"2,2',4,5,6'-pentachlorodiphenyl  ether",InChI=1S/C12H5Cl5O/c13-6-2-1-3-7(14)12(6)18-11-5-9(16)8(15)4-10(11)17/h1-5H,BOJBTUWEQMUWHT-UHFFFAOYSA-N,ClC1=CC=CC(=C1OC2=C(Cl)C=C(Cl)C(=C2)Cl)Cl,-7.12,0.0,1.0,G1,342.436,6.7459,78.008,18.0,1.0,0.0,6.0,2.0,94.0,2.0,0.0,0.0,2.0,9.23,129.1183737,2.432899227,577.0119083
2380,A-3975,pivalic acid,"InChI=1S/C5H10O2/c1-5(2,3)4(6)7/h1-3H3,(H,6,7)",IUGYQRQAERSCNH-UHFFFAOYSA-N,CC(C)(C)C(O)=O,-0.563561886,0.054569057,2.0,G3,102.133,1.1171,27.0908,7.0,1.0,1.0,2.0,0.0,42.0,0.0,0.0,0.0,0.0,37.3,43.15477534,3.791118417,78.57116899
6243,B-3211,"1,1'-biphenyl, 2,3,3',4,4',5',6-heptachloro-",InChI=1S/C12H3Cl7/c13-5-3-8(16)11(18)12(19)9(5)4-1-6(14)10(17)7(15)2-4/h1-3H,TVFXBXWAXIMLAQ-UHFFFAOYSA-N,Clc1cc(Cl)c(c2cc(Cl)c(Cl)c(Cl)c2)c(Cl)c1Cl,-9.1,0.0,1.0,G1,395.327,7.9274,86.948,19.0,0.0,0.0,7.0,1.0,100.0,2.0,0.0,0.0,2.0,0.0,144.6113609,2.761179565,640.6079667
3941,B-455,"1,3,5-triethylbenzene","InChI=1S/C12H18/c1-4-10-7-11(5-2)9-12(6-3)8-10/h7-9H,4-6H2,1-3H3",WJYMPXJVHNDZHD-UHFFFAOYSA-N,CCc1cc(CC)cc(CC)c1,-7.0641,0.0,1.0,G1,162.276,3.3738,54.576,12.0,0.0,0.0,0.0,3.0,66.0,1.0,0.0,0.0,1.0,0.0,75.62105581,3.011257354,192.9825555
9395,F-740,1-hydroxy-3-oxoindene-2-sulfonic acid,"InChI=1S/C9H6O5S/c10-7-5-3-1-2-4-6(5)8(11)9(7)15(12,13)14/h1-4,10H,(H,12,13,14)",RFDBNYYZXOVYMC-UHFFFAOYSA-N,OC1=C(S(=O)(=O)O)C(=O)C2=C1C=CC=C2,-2.23,0.0,1.0,G1,226.209,0.9973,51.8699,15.0,4.0,2.0,6.0,1.0,78.0,1.0,0.0,1.0,2.0,91.67,85.41518714,2.766786491,582.2751966
6284,B-3256,etofenprox,"InChI=1S/C25H28O3/c1-4-27-22-15-13-21(14-16-22)25(2,3)19-26-18-20-9-8-12-24(17-20)28-23-10-6-5-7-11-23/h5-17H,4,18-19H2,1-3H3",YREQHYQNNWYQCJ-UHFFFAOYSA-N,CCOc1ccc(cc1)C(C)(C)COCc2cccc(Oc3ccccc3)c2,-8.5758,0.0121,2.0,G3,376.496,6.372,113.251,28.0,3.0,0.0,3.0,9.0,146.0,3.0,0.0,0.0,3.0,27.69,167.440822,1.554564869,854.4761381
8722,E-258,3-ethyl-3-pentanol,"InChI=1S/C7H16O/c1-4-7(8,5-2)6-3/h8H,4-6H2,1-3H3",XKIRHOWVQWCYBT-UHFFFAOYSA-N,OC(CC)(CC)CC,-0.85,0.00505,2.0,G3,116.204,1.9475,35.8228,8.0,1.0,1.0,1.0,3.0,50.0,0.0,0.0,0.0,0.0,20.23,51.72313747,3.583212565,47.14250307
6817,B-4065,n-nitrosodipropylamine,"InChI=1S/C6H14N2O/c1-3-5-8(7-9)6-4-2/h3-6H2,1-2H3",YLKFDHTUAUWZPQ-UHFFFAOYSA-N,CCCN(CCC)N=O,-1.0006,0.0,1.0,G1,130.191,1.7898,37.95,9.0,2.0,0.0,3.0,5.0,54.0,0.0,0.0,0.0,0.0,32.67,55.98866327,3.285299824,69.45811191
6487,B-3473,fenazaquin,"InChI=1S/C20H22N2O/c1-20(2,3)16-10-8-15(9-11-16)12-13-23-19-17-6-4-5-7-18(17)21-14-22-19/h4-11,14H,12-13H2,1-3H3",DMYHGDXADUDKCQ-UHFFFAOYSA-N,CC(C)(C)c1ccc(CCOc2ncnc3ccccc23)cc1,-6.1439,0.0,1.0,G1,306.409,4.5488,93.879,23.0,3.0,0.0,3.0,4.0,118.0,3.0,0.0,0.0,3.0,35.01,136.9126557,1.648455411,783.3458892
6134,B-3090,"ethanamine, n,2-dichloro-n-(2-chloroethyl)-",InChI=1S/C4H8Cl3N/c5-1-3-8(7)4-2-6/h1-4H2,HEMZNEGKTOHOHW-UHFFFAOYSA-N,ClCCN(Cl)CCCl,-1.9203,0.0,1.0,G1,176.474,1.9198,38.866,8.0,1.0,0.0,4.0,4.0,50.0,0.0,0.0,0.0,0.0,3.24,64.61538055,2.919612641,44.54808141
6270,B-3241,fluoroglycofenethyl,"InChI=1S/C18H13ClF3NO7/c1-2-28-16(24)9-29-17(25)12-8-11(4-5-14(12)23(26)27)30-15-6-3-10(7-13(15)19)18(20,21)22/h3-8H,2,9H2,1H3",IPPAUTOBDWNELX-UHFFFAOYSA-N,CCOC(=O)COC(=O)c1cc(Oc2ccc(cc2Cl)C(F)(F)F)ccc1[N+]([O-])=O,-5.8729,0.0,1.0,G1,447.749,4.7792,96.5399,30.0,7.0,0.0,12.0,7.0,160.0,2.0,0.0,0.0,2.0,104.97,171.7946781,2.28183002,978.7377472
2639,A-4437,2-[2-(2-{2-[(2-methylprop-2-enoyl)oxy]ethoxy}ethoxy)ethoxy]ethyl 2-methylprop-2-enoate,"InChI=1S/C16H26O7/c1-13(2)15(17)22-11-9-20-7-5-19-6-8-21-10-12-23-16(18)14(3)4/h1,3,5-12H2,2,4H3",LTHJXDSHSVNJKG-UHFFFAOYSA-N,CC(=C)C(=O)OCCOCCOCCOCCOC(=O)C(C)=C,-1.41863926,0.0,1.0,G1,330.377,1.2748,84.003,23.0,7.0,0.0,7.0,14.0,132.0,0.0,0.0,0.0,0.0,80.29,136.724947,3.192574799,353.8899896
2706,A-4525,N-(1-cyanoethyl)formamide,"InChI=1S/C4H6N2O/c1-4(2-5)6-3-7/h3-4H,1H3,(H,6,7)",ONONIESHMTZAKB-UHFFFAOYSA-N,CC(NC=O)C#N,1.008308858,0.0,1.0,G1,98.105,-0.35552,24.2747,7.0,2.0,1.0,3.0,2.0,38.0,0.0,0.0,0.0,0.0,52.89,41.93804134,3.209971691,94.35314212
7545,C-987,warfarin (hemiketal-isomer),"InChI=1S/C19H16O4/c1-19(21)11-14(12-7-3-2-4-8-12)16-17(23-19)13-9-5-6-10-15(13)22-18(16)20/h2-10,14,21H,11H2,1H3",LSCYDZJASSKSMJ-UHFFFAOYSA-N,CC1(O)CC(C2=CC=CC=C2)C3=C(O1)C4=C(OC3=O)C=CC=C4,-4.74,0.0,1.0,G1,308.333,3.4159,86.6378,23.0,4.0,1.0,4.0,1.0,116.0,3.0,0.0,1.0,4.0,59.67,132.4982171,2.037972638,925.0025197
5197,B-2029,parathion-amino,"InChI=1S/C10H16NO3PS/c1-3-12-15(16,13-4-2)14-10-7-5-9(11)6-8-10/h5-8H,3-4,11H2,1-2H3",XIZOTXGJXSTQDI-UHFFFAOYSA-N,CCO[P](=S)(OCC)Oc1ccc(N)cc1,-2.826,0.0,1.0,G1,261.283,2.9451,69.0194,16.0,5.0,1.0,6.0,6.0,90.0,1.0,0.0,0.0,1.0,53.71,100.9516261,2.748340737,358.8318207
133,A-224,1-dodecylpyridin-1-ium chloride,"InChI=1S/C17H30N.ClH/c1-2-3-4-5-6-7-8-9-10-12-15-18-16-13-11-14-17-18;/h11,13-14,16-17H,2-10,12,15H2,1H3;1H/q+1;/p-1",GKQHIYSTBXDYNQ-UHFFFAOYSA-M,[Cl-].CCCCCCCCCCCC[n+]1ccccc1,-0.453910537,0.0,1.0,G1,283.887,1.899,78.481,19.0,0.0,0.0,2.0,11.0,110.0,1.0,0.0,0.0,1.0,3.88,125.3934212,3.24e-06,273.8503707
4587,B-1325,2-nitro-1-butanol,"InChI=1S/C4H9NO3/c1-2-4(3-6)5(7)8/h4,6H,2-3H2,1H3",MHIHRIPETCJEMQ-UHFFFAOYSA-N,CCC(CO)[N+]([O-])=O,-0.3436,0.0,1.0,G1,119.12,0.034,28.1592,8.0,3.0,1.0,4.0,3.0,48.0,0.0,0.0,0.0,0.0,63.37,47.28128685,3.520860067,79.35260811
2126,A-3506,5-oxo-DL-proline,"InChI=1S/C5H7NO3/c7-4-2-1-3(6-4)5(8)9/h3H,1-2H2,(H,6,7)(H,8,9)",ODHCTXKNWHHXJC-UHFFFAOYSA-N,OC(=O)C1CCC(=O)N1,-0.404258917,0.485629459,2.0,G3,129.115,-0.6504,28.8005,9.0,2.0,2.0,4.0,1.0,50.0,0.0,1.0,1.0,1.0,66.4,51.86032847,2.480896527,154.2820971
6886,B-4173,"p,p'-ddt","InChI=1S/C14H9Cl5/c15-11-5-1-9(2-6-11)13(14(17,18)19)10-3-7-12(16)8-4-10/h1-8,13H",YVGGHNCTFXOJCH-UHFFFAOYSA-N,Clc1ccc(cc1)C(c2ccc(Cl)cc2)C(Cl)(Cl)Cl,-7.8092,0.386036099,4.0,G5,354.491,6.4955,85.037,19.0,0.0,0.0,5.0,2.0,100.0,2.0,0.0,0.0,2.0,0.0,136.7347127,2.474116813,494.0441614
5308,B-2157,"6h-purin-6-one, 2-chloro-1,7-dihydro-7-methyl-,","InChI=1S/C6H7ClN6/c1-13-2-9-4-3(13)5(12-8)11-6(7)10-4/h2H,8H2,1H3,(H,10,11,12)",DSBMZQSBWWASSE-UHFFFAOYSA-N,Cn1cnc2nc(Cl)nc(NN)c12,-1.1427,0.0,1.0,G1,198.617,0.3023,49.1241,13.0,6.0,2.0,7.0,1.0,68.0,2.0,0.0,0.0,2.0,81.65,78.71924074,2.84787908,449.5663571
7396,C-643,"4-hydroxy-5,6-dihydro-4h-2-sulfamoylthieno[2,3-b]thiopyran","InChI=1S/C7H9NO3S3/c8-14(10,11)6-3-4-5(9)1-2-12-7(4)13-6/h3,5,9H,1-2H2,(H2,8,10,11)",QUBSMEXIPLOOMC-UHFFFAOYSA-N,N[S](=O)(=O)C1=CC2=C(SCCC2O)S1,-2.59,0.0,1.0,G1,251.354,0.9247,55.993,14.0,5.0,2.0,7.0,1.0,78.0,1.0,0.0,1.0,2.0,80.39,90.17877195,2.50392838,450.7451186
5770,B-2676,cresyl diphenyl phosphate,"InChI=1S/C19H17O4P/c1-16-12-14-19(15-13-16)23-24(20,21-17-8-4-2-5-9-17)22-18-10-6-3-7-11-18/h2-15H,1H3",OJUZRFGUKHQNJX-UHFFFAOYSA-N,Cc1ccc(O[P](=O)(Oc2ccccc2)Oc3ccccc3)cc1,-6.1517,0.0,1.0,G1,340.315,5.63992,93.5535,24.0,4.0,0.0,5.0,6.0,122.0,3.0,0.0,0.0,3.0,44.76,140.80078,1.869696795,771.5052289
1987,A-3275,ammonium trioxovanadate(1-),InChI=1S/V,LEONUFNNVUYDNQ-UHFFFAOYSA-N,[V],-0.814424958,0.0,1.0,G1,50.942,-0.0025,0.0,1.0,0.0,0.0,1.0,0.0,5.0,0.0,0.0,0.0,0.0,0.0,19.37662092,0.0,0.0
2838,A-4744,"3-oxo-N-(2-oxo-2,3-dihydro-1H-1,3-benzodiazol-5-yl)butanamide","InChI=1S/C11H11N3O3/c1-6(15)4-10(16)12-7-2-3-8-9(5-7)14-11(17)13-8/h2-3,5H,4H2,1H3,(H,12,16)(H2,13,14,17)",VEMDQCGHZNXORX-UHFFFAOYSA-N,CC(=O)CC(=O)Nc1ccc2NC(=O)Nc2c1,-2.522680786,0.0,1.0,G1,233.227,0.7738,62.8471,17.0,3.0,3.0,6.0,3.0,88.0,2.0,0.0,0.0,2.0,94.82,96.03607299,2.214192322,638.6942289
5819,B-2736,"pteridine, 4-methoxy-","InChI=1S/C7H6N4O/c1-12-7-5-6(10-4-11-7)9-3-2-8-5/h2-4H,1H3",KCCOKUSVNPDIBJ-UHFFFAOYSA-N,COc1ncnc2nccnc12,-1.113,0.0,1.0,G1,162.152,0.4284,41.68,12.0,5.0,0.0,5.0,1.0,60.0,2.0,0.0,0.0,2.0,60.79,68.47014692,2.79096703,398.0334383