,ID,Name,InChI,InChIKey,SMILES,Solubility,SD,Ocurrences,Group,MolWt,MolLogP,MolMR,HeavyAtomCount,NumHAcceptors,NumHDonors,NumHeteroatoms,NumRotatableBonds,NumValenceElectrons,NumAromaticRings,NumSaturatedRings,NumAliphaticRings,RingCount,TPSA,LabuteASA,BalabanJ,BertzCT
7939,C-1777,4-ureidophenyl  acetate;  acetic acid 4-ureidophenyl ester,"InChI=1S/C9H10N2O3/c1-6(12)14-8-4-2-7(3-5-8)11-9(10)13/h2-5H,1H3,(H3,10,11,13)",RHNWGZJHWWJART-UHFFFAOYSA-N,CC(=O)OC1=CC=C(NC(N)=O)C=C1,-2.49,0.0,1.0,G1,194.19,1.1025,50.9571,14.0,3.0,2.0,5.0,2.0,74.0,1.0,0.0,0.0,1.0,81.42,80.85257177,2.679983362,310.5796288
9277,F-606,2-(carboxymethylamino)-3-phenylpropanoic acid,"InChI=1S/C11H13NO4/c13-10(14)7-12-9(11(15)16)6-8-4-2-1-3-5-8/h1-5,9,12H,6-7H2,(H,13,14)(H,15,16)",FVQDAMVODWHNOJ-UHFFFAOYSA-N,O=C(O)CNC(CC1=CC=CC=C1)C(=O)O,-2.16,0.0,1.0,G1,223.228,0.3565,57.2083,16.0,3.0,3.0,5.0,6.0,86.0,1.0,0.0,0.0,1.0,86.63,92.71748758,2.580599939,363.5071289
5986,B-2922,buminafos,"InChI=1S/C18H38NO3P/c1-4-7-15-19-18(13-11-10-12-14-18)23(20,21-16-8-5-2)22-17-9-6-3/h19H,4-17H2,1-3H3",NMBXMBCZBXUXAM-UHFFFAOYSA-N,CCCCNC1(CCCCC1)[P](=O)(OCCCC)OCCCC,-3.3105,0.0,1.0,G1,347.48,5.863,98.0532,23.0,4.0,1.0,5.0,13.0,138.0,0.0,1.0,1.0,1.0,47.56,143.1773289,2.861135826,329.1583993
5979,B-2915,"benzeneacetic acid, .alpha.-(acetyloxy)-, (r)-","InChI=1S/C10H10O4/c1-7(11)14-9(10(12)13)8-5-3-2-4-6-8/h2-6,9H,1H3,(H,12,13)/t9-/m1/s1",OBCUSTCTKLTMBX-SECBINFHSA-N,CC(=O)O[C@@H](C(O)=O)c1ccccc1,-1.2313,0.0,1.0,G1,194.186,1.3754,48.5848,14.0,3.0,1.0,4.0,3.0,74.0,1.0,0.0,0.0,1.0,63.6,81.12199476,2.889591545,331.2350519
2029,A-3348,1H-imidazole,"InChI=1S/C3H4N2/c1-2-5-3-4-1/h1-3H,(H,4,5)",RAXXELZNTBOGNW-UHFFFAOYSA-N,[nH]1ccnc1,0.968390542,0.010054909,2.0,G3,68.079,0.4097,18.5877,5.0,1.0,1.0,2.0,0.0,26.0,1.0,0.0,0.0,1.0,28.68,29.86021152,3.125,61.36993061
5651,B-2543,"3-heptanol, 2-methyl-","InChI=1S/C8H18O/c1-4-5-6-8(9)7(2)3/h7-9H,4-6H2,1-3H3",QGVFLDUEHSIZIG-UHFFFAOYSA-N,CCCCC(O)C(C)C,-1.8122,0.0,1.0,G1,130.231,2.1935,40.3698,9.0,1.0,1.0,1.0,4.0,56.0,0.0,0.0,0.0,0.0,20.23,58.08807958,3.155280084,59.58797504
6210,B-3176,pyrazoxyfen,"InChI=1S/C20H16Cl2N2O3/c1-12-18(19(26)15-9-8-14(21)10-16(15)22)20(24(2)23-12)27-11-17(25)13-6-4-3-5-7-13/h3-10H,11H2,1-2H3",FKERUJTUOYLBKB-UHFFFAOYSA-N,Cn1nc(C)c(C(=O)c2ccc(Cl)cc2Cl)c1OCC(=O)c3ccccc3,-2.6514,0.0,1.0,G1,403.265,4.52802,104.107,27.0,5.0,0.0,7.0,6.0,138.0,3.0,0.0,0.0,3.0,61.19,166.0206574,1.890164695,1013.566339
9167,F-422,"1,1-dimethyl-3-(4-propan-2-ylphenyl)urea","InChI=1S/C12H18N2O/c1-9(2)10-5-7-11(8-6-10)13-12(15)14(3)4/h5-9H,1-4H3,(H,13,15)",PUIYMUZLKQOUOZ-UHFFFAOYSA-N,CC(C)C1=CC=C(NC(=O)N(C)C)C=C1,-3.5,0.027107564,3.0,G5,206.289,2.9035,63.2367,15.0,1.0,1.0,3.0,2.0,82.0,1.0,0.0,0.0,1.0,32.34,91.09227376,2.685768989,327.9802853
9074,F-260,3-[(4-hydroxyphenyl)diazenyl]benzoic acid,"InChI=1S/C13H10N2O3/c16-12-6-4-10(5-7-12)14-15-11-3-1-2-9(8-11)13(17)18/h1-8,16H,(H,17,18)",MGQRCDWAEYGOIZ-UHFFFAOYSA-N,O=C(O)C1=CC=CC(N=NC2=CC=C(O)C=C2)=C1,-3.85,0.0,1.0,G1,242.234,3.5058,65.6841,18.0,4.0,2.0,5.0,3.0,90.0,2.0,0.0,0.0,2.0,82.25,103.0502069,2.203653088,591.4402813
9803,G-707,gentisin,"InChI=1S/C14H14O5/c1-18-8-5-10(16)13-12(6-8)19-11-3-2-7(15)4-9(11)14(13)17/h2-6,9,11-13,15-16H,1H3",DOIBQIDXMYSSJY-UHFFFAOYSA-N,c1c(O)C2C(=O)C3cc(O)ccC3OC2cc1(OC),-2.943,0.0,1.0,G1,262.261,1.5528,66.3036,19.0,5.0,2.0,5.0,1.0,100.0,0.0,1.0,3.0,3.0,75.99,109.684673,1.953148049,540.0395781
9552,F-968,4-chloro-N-(4-chlorophenyl)sulfonylbenzenesulfonamide,"InChI=1S/C12H9Cl2NO4S2/c13-9-1-5-11(6-2-9)20(16,17)15-21(18,19)12-7-3-10(14)4-8-12/h1-8,15H",ISLGMFCNZJGDTA-UHFFFAOYSA-N,O=S(=O)(NS(=O)(=O)C1=CC=C(Cl)C=C1)C1=CC=C(Cl)C=C1,-2.48,0.0,1.0,G1,366.247,2.6606,80.4113,21.0,4.0,1.0,9.0,4.0,112.0,2.0,0.0,0.0,2.0,80.31,132.1664437,2.349918392,771.6353691
8536,D-508,benzotrifluoride,"InChI=1S/C7H5F3/c8-7(9,10)6-4-2-1-3-5-6/h1-5H",GETTZEONDQJALK-UHFFFAOYSA-N,FC(F)(F)c1ccccc1,-2.511,0.2538,2.0,G3,146.111,2.7054,31.444,10.0,0.0,0.0,3.0,0.0,54.0,1.0,0.0,0.0,1.0,0.0,56.29295144,2.966043179,199.841246
2707,A-4526,N-ethylethanamine,"InChI=1S/C4H11N/c1-3-5-4-2/h5H,3-4H2,1-2H3",HPNMFZURTQLUMO-UHFFFAOYSA-N,CCNCC,1.135850982,0.0,1.0,G1,73.139,0.6158,24.2177,5.0,1.0,1.0,1.0,2.0,32.0,0.0,0.0,0.0,0.0,12.03,33.38393955,2.190609687,11.11941548
9525,F-906,4-[4-hydroxy-3-[(methyl-(2-methylpropyl)amino)methyl]benzoyl]thiophene-2-sulfonamide,"InChI=1S/C17H22N2O4S2/c1-11(2)8-19(3)9-13-6-12(4-5-15(13)20)17(21)14-7-16(24-10-14)25(18,22)23/h4-7,10-11,20H,8-9H2,1-3H3,(H2,18,22,23)",ICZBWKGJZRHLFV-UHFFFAOYSA-N,CC(C)CN(C)CC1=C(O)C=CC(C(=O)C2=CSC(S(N)(=O)=O)=C2)=C1,-1.42,0.0,1.0,G1,382.507,2.4199,98.4035,25.0,6.0,2.0,8.0,7.0,136.0,2.0,0.0,0.0,2.0,100.7,151.4997115,2.25976641,872.5230495
8020,C-1900,"3,4,5-trichlorophenoxyacetic acid","InChI=1S/C8H5Cl3O3/c9-5-1-4(14-3-7(12)13)2-6(10)8(5)11/h1-2H,3H2,(H,12,13)",DAIMSMGGQIIQPI-UHFFFAOYSA-N,OC(=O)COC1=CC(=C(Cl)C(=C1)Cl)Cl,-2.94,0.0,1.0,G1,255.484,3.1102,54.6028,14.0,2.0,1.0,6.0,3.0,76.0,1.0,0.0,0.0,1.0,46.53,95.14038711,2.841930502,341.8442913
7510,C-926,"7-hydroxy-4-oxo-4,5,6,7-tetrahydro-2-sulfamoylthieno[3,2-b]thiopyran","InChI=1S/C7H9NO4S3/c8-15(11,12)6-3-5-7(13-6)4(9)1-2-14(5)10/h3-4,9H,1-2H2,(H2,8,11,12)",XEROSHXMTSNDBW-UHFFFAOYSA-N,N[S](=O)(=O)C1=CC2=C(S1)C(O)CC[S]2=O,-1.57,0.0,1.0,G1,267.353,-0.0598,56.5444,15.0,5.0,2.0,8.0,1.0,84.0,1.0,0.0,1.0,2.0,97.46,93.42991612,2.59637103,518.3376472
7429,C-733,"4,4'-ddd; 2,2-bis(4-chlorophenyl)-1,1-dichloroethane","InChI=1S/C14H10Cl4/c15-11-5-1-9(2-6-11)13(14(17)18)10-3-7-12(16)8-4-10/h1-8,13-14H",AHJKRLASYNVKDZ-UHFFFAOYSA-N,ClC(Cl)C(C1=CC=C(Cl)C=C1)C2=CC=C(Cl)C=C2,-7.2,0.3245,2.0,G3,320.046,5.929,80.241,18.0,0.0,0.0,4.0,3.0,94.0,2.0,0.0,0.0,2.0,0.0,126.4314465,2.394110503,456.8221302
6472,B-3457,thiazopyr,"InChI=1S/C16H17F5N2O2S/c1-7(2)6-8-9(15(24)25-3)11(13(17)18)23-12(16(19,20)21)10(8)14-22-4-5-26-14/h7,13H,4-6H2,1-3H3",YIJZJEYQBAAWRJ-UHFFFAOYSA-N,COC(=O)c1c(CC(C)C)c(C2=NCCS2)c(nc1C(F)F)C(F)(F)F,-5.2002,0.0,1.0,G1,396.381,4.5165,87.9395,26.0,5.0,0.0,10.0,5.0,144.0,1.0,0.0,1.0,2.0,51.55,150.7807601,2.945306893,732.3307796
8622,D-1697,picein,"InChI=1S/C14H18O7/c1-7(16)8-2-4-9(5-3-8)20-14-13(19)12(18)11(17)10(6-15)21-14/h2-5,10-15,17-19H,6H2,1H3/t10-,11-,12+,13-,14-/m1/s1",GOZCEKPKECLKNO-RKQHYHRCSA-N,CC(=O)c1ccc(O[C@@H]2O[C@H](CO)[C@@H](O)[C@H](O)[C@H]2O)cc1,-1.174,0.0,1.0,G1,298.291,-0.9321,70.8417,21.0,7.0,4.0,7.0,4.0,116.0,1.0,1.0,1.0,2.0,116.45,120.9106564,2.084631453,484.6008196
8908,E-1159,cycloheximide,"InChI=1S/C15H23NO4/c1-8-3-9(2)15(20)11(4-8)12(17)5-10-6-13(18)16-14(19)7-10/h8-12,17H,3-7H2,1-2H3,(H,16,18,19)",YPHMISFOHDHNIV-UHFFFAOYSA-N,CC1CC(C)C(=O)C(C1)C(O)CC2CC(=O)NC(=O)C2,-1.13,0.0,1.0,G1,281.352,1.0415,72.5565,20.0,4.0,2.0,5.0,3.0,112.0,0.0,2.0,2.0,2.0,83.47,118.6654406,1.962195541,404.096576
3844,B-304,"2,7-naphthalenedisulfonic acid, 1-amino-","InChI=1S/C10H9NO6S2/c11-9-3-4-10(19(15,16)17)8-5-6(18(12,13)14)1-2-7(8)9/h1-5H,11H2,(H,12,13,14)(H,15,16,17)",JSBQMQFABBMNSV-UHFFFAOYSA-N,Nc1ccc(c2cc(ccc12)[S](O)(=O)=O)[S](O)(=O)=O,-0.2592,0.0,1.0,G1,303.317,0.9154,67.9896,19.0,5.0,3.0,9.0,2.0,102.0,2.0,0.0,0.0,2.0,134.76,108.7102304,2.978954275,870.2731743
7936,C-1772,7-aminopteridine,"InChI=1S/C6H5N5/c7-5-2-9-4-1-8-3-10-6(4)11-5/h1-3H,(H2,7,8,10,11)",KJVGXOHRFWZQJB-UHFFFAOYSA-N,NC1=NC2=C(C=NC=N2)N=C1,-2.31,0.0,1.0,G1,147.141,0.002,39.5404,11.0,5.0,1.0,5.0,0.0,54.0,2.0,0.0,0.0,2.0,77.58,62.33155027,2.828901216,385.3843559
4743,B-1519,"1,3-dioxolane, 2-(1-methylethyl)-","InChI=1S/C6H12O2/c1-5(2)6-7-3-4-8-6/h5-6H,3-4H2,1-2H3",SMYRHRFGKYUCFB-UHFFFAOYSA-N,CC(C)C1OCCO1,-0.0651,0.0,1.0,G1,116.16,1.0153,30.53,8.0,2.0,0.0,2.0,1.0,48.0,0.0,1.0,1.0,1.0,18.46,49.78522091,2.242040082,64.92878689
9171,F-429,"2,5,9-trimethylpyrano[5,6-f][1]benzoxol-7-one","InChI=1S/C14H12O3/c1-7-4-12(15)17-14-9(3)13-10(6-11(7)14)5-8(2)16-13/h4-6H,1-3H3",FMHHVULEAZTJMA-UHFFFAOYSA-N,CC1=CC2=CC3=C(OC(=O)C=C3C)C(C)=C2O1,-5.28,0.0,1.0,G1,228.247,3.46446,66.467,17.0,3.0,0.0,3.0,0.0,86.0,3.0,0.0,0.0,3.0,43.35,97.65022671,2.626324292,790.4241011
4455,B-1164,9-methyl-9-azabicyclo[3.3.1]nonan-3-one,"InChI=1S/C9H15NO/c1-10-7-3-2-4-8(10)6-9(11)5-7/h7-8H,2-6H2,1H3",RHWSKVCZXBAWLZ-UHFFFAOYSA-N,CN1C2CCCC1CC(=O)C2,0.4167,0.0,1.0,G1,153.225,1.2022,43.431,11.0,2.0,0.0,2.0,0.0,62.0,0.0,2.0,2.0,2.0,20.31,67.56848141,2.122767128,162.4015466
7682,C-1292,flurochloridone,"InChI=1S/C12H10Cl2F3NO/c13-5-7-6-18(11(19)10(7)14)9-3-1-2-8(4-9)12(15,16)17/h1-4,7,10H,5-6H2",OQZCSNDVOWYALR-UHFFFAOYSA-N,FC(F)(F)C1=CC=CC(=C1)N2CC(CCl)C(Cl)C2=O,-4.05,0.0505,2.0,G3,312.118,3.5144,67.648,19.0,1.0,0.0,7.0,2.0,104.0,1.0,1.0,1.0,2.0,20.31,117.6397191,2.307280069,492.1079942
713,A-1237,3-amino-4-methoxybenzenesulfonic acid,"InChI=1S/C7H9NO4S/c1-12-7-3-2-5(4-6(7)8)13(9,10)11/h2-4H,8H2,1H3,(H,9,10,11)",FLIOATBXVNLPLK-UHFFFAOYSA-N,COc1ccc(cc1N)[S](O)(=O)=O,-0.899724345,0.543010335,2.0,G2,203.219,0.5241,47.221,13.0,4.0,2.0,6.0,2.0,72.0,1.0,0.0,0.0,1.0,89.62,75.87841717,3.258190873,412.5007608
2268,A-3772,Trimethylsulfoxonium iodide,"InChI=1S/C3H9OS.HI/c1-5(2,3)4;/h1-3H3;1H/q+1;/p-1",BPLKQGGAXWRFOE-UHFFFAOYSA-M,[I-].C[S+](C)(C)=O,-0.756884432,0.047324617,2.0,G3,220.075,-2.6207,25.8235,6.0,1.0,0.0,3.0,0.0,40.0,0.0,0.0,0.0,0.0,17.07,56.95522524,0.0,56.92878689
1447,A-2489,"N-{5-[bis(prop-2-en-1-yl)amino]-2-[(E)-2-(2-chloro-4,6-dinitrophenyl)diazen-1-yl]-4-methoxyphenyl}acetamide","InChI=1S/C21H21ClN6O6/c1-5-7-26(8-6-2)18-11-16(23-13(3)29)17(12-20(18)34-4)24-25-21-15(22)9-14(27(30)31)10-19(21)28(32)33/h5-6,9-12H,1-2,7-8H2,3-4H3,(H,23,29)",DKEXINVRFGWAKP-UHFFFAOYSA-N,COc1cc(N=Nc2c(Cl)cc(cc2[N+]([O-])=O)[N+]([O-])=O)c(NC(C)=O)cc1N(CC=C)CC=C,-4.388179382,0.0,1.0,G1,488.888,5.7172,128.8415,34.0,9.0,1.0,13.0,11.0,178.0,2.0,0.0,0.0,2.0,152.57,199.034529,2.679815591,1172.829185
4304,B-988,osthole,"InChI=1S/C15H16O3/c1-10(2)4-7-12-13(17-3)8-5-11-6-9-14(16)18-15(11)12/h4-6,8-9H,7H2,1-3H3",MBRLOUHOWLUMFF-UHFFFAOYSA-N,COc1ccc2C=CC(=O)Oc2c1CC=C(C)C,-4.3087,0.0,1.0,G1,244.29,3.3103,72.171,18.0,3.0,0.0,3.0,3.0,94.0,2.0,0.0,0.0,2.0,39.44,105.6930015,2.673114418,646.3265679
521,A-926,strontium(2+) ion 3-hydroxy-4-[(E)-2-(4-methyl-2-sulfonatophenyl)diazen-1-yl]naphthalene-2-carboxylate,"InChI=1S/C18H14N2O6S.Sr/c1-10-6-7-14(15(8-10)27(24,25)26)19-20-16-12-5-3-2-4-11(12)9-13(17(16)21)18(22)23;/h2-9,19H,1H3,(H,22,23)(H,24,25,26);/q;+2/p-2/b20-16-;",XUCZYOLXABAZRV-LRZQPWDCSA-L,[Sr++].Cc1ccc(N\N=C\2C(=O)C(=Cc3ccccc23)C([O-])=O)c(c1)[S]([O-])(=O)=O,-4.105730153,0.0,1.0,G1,471.989,0.05052,99.4889,28.0,8.0,1.0,10.0,4.0,138.0,2.0,0.0,1.0,3.0,138.79,197.5319463,2.8e-06,1138.514875
3834,B-291,riboflavin,"InChI=1S/C17H20N4O6/c1-7-3-9-10(4-8(7)2)21(5-11(23)14(25)12(24)6-22)15-13(18-9)16(26)20-17(27)19-15/h3-4,11-12,14,22-25H,5-6H2,1-2H3,(H,20,26,27)",AUNGANRZJHBGPY-UHFFFAOYSA-N,Cc1cc2N=C3C(=O)NC(=O)N=C3N(CC(O)C(O)C(O)CO)c2cc1C,-3.6478,0.041678238,3.0,G5,376.369,-1.72356,95.6209,27.0,9.0,5.0,10.0,5.0,144.0,1.0,0.0,2.0,3.0,161.56,152.2923242,2.275289412,1075.453995
8980,F-97,"6-sulfanylidene-7,9-dihydro-3H-purine-2,8-dione","InChI=1S/C5H4N4O2S/c10-4-6-1-2(7-4)8-5(11)9-3(1)12/h(H4,6,7,8,9,10,11,12)",SXHQUGJSTGOXMD-UHFFFAOYSA-N,O=C1NC(=S)C2=C(N1)NC(=O)N2,-4.04,0.0,1.0,G1,184.18,-0.39791,44.7248,12.0,3.0,4.0,7.0,0.0,62.0,2.0,0.0,0.0,2.0,97.3,69.66299646,3.183503281,585.4945191
8415,C-2489,"5-(4-aminobenzenesulfonylimido)-4-methyl-delta2-1,3,4-thiadiazoline-2-sulfonamide","InChI=1S/C9H11N5O4S3/c1-14-8(19-9(12-14)20(11,15)16)13-21(17,18)7-4-2-6(10)3-5-7/h2-5H,10H2,1H3,(H2,11,15,16)",BKCXBMXTXLGZCV-UHFFFAOYSA-N,CN1N=C(SC1=N[S](=O)(=O)C2=CC=C(N)C=C2)[S](N)(=O)=O,-2.5,0.0,1.0,G1,349.419,-0.9992,76.0614,21.0,8.0,2.0,12.0,3.0,114.0,2.0,0.0,0.0,2.0,150.5,124.2081794,2.578403169,938.0144951
933,A-1619,2-phenylethyl 2-methylpropanoate,"InChI=1S/C12H16O2/c1-10(2)12(13)14-9-8-11-6-4-3-5-7-11/h3-7,10H,8-9H2,1-2H3",JDQVBGQWADMTAM-UHFFFAOYSA-N,CC(C)C(=O)OCCc1ccccc1,-3.079764438,0.039108444,3.0,G5,192.258,2.4283,55.943,14.0,2.0,0.0,2.0,4.0,76.0,1.0,0.0,0.0,1.0,26.3,84.89612314,2.257507229,277.6330203
3929,B-432,p-(sec-butyl)phenol,"InChI=1S/C10H14O/c1-3-8(2)9-4-6-10(11)7-5-9/h4-8,11H,3H2,1-2H3",ZUTYZAFDFLLILI-UHFFFAOYSA-N,CCC(C)c1ccc(O)cc1,-2.1945,0.0,1.0,G1,150.221,2.9057,46.8128,11.0,1.0,1.0,1.0,2.0,60.0,1.0,0.0,0.0,1.0,20.23,67.68540533,2.805744532,212.8193159
1513,A-2580,hydrate iron potassium,InChI=1S/Fe.K.2O/q+3;+1;2*-2,UMPKMCDVBZFQOK-UHFFFAOYSA-N,[O--].[O--].[K+].[Fe+3],-5.103601915,0.0,1.0,G1,126.941,-3.2361,1.373,4.0,0.0,0.0,4.0,0.0,21.0,0.0,0.0,0.0,0.0,57.0,77.84816958,0.0,6.0
4574,B-1310,"3-methyl-2,4,6-trinitrophenol","InChI=1S/C7H5N3O7/c1-3-4(8(12)13)2-5(9(14)15)7(11)6(3)10(16)17/h2,11H,1H3",YYGJRRYSYLLCQH-UHFFFAOYSA-N,Cc1c(cc(c(O)c1[N+]([O-])=O)[N+]([O-])=O)[N+]([O-])=O,-2.0434,0.0,1.0,G1,243.131,1.42522,52.807,17.0,7.0,1.0,10.0,3.0,90.0,1.0,0.0,0.0,1.0,149.65,92.54950615,3.756255092,500.5091268
4755,B-1532,allylidenediacetate,"InChI=1S/C7H10O4/c1-4-7(10-5(2)8)11-6(3)9/h4,7H,1H2,2-3H3",TXECTBGVEUDNSL-UHFFFAOYSA-N,CC(=O)OC(OC(C)=O)C=C,-1.2449,0.0,1.0,G1,158.153,0.6247,37.517,11.0,4.0,0.0,4.0,3.0,62.0,0.0,0.0,0.0,0.0,52.6,64.78943534,3.853125001,157.2793871
3468,A-5758,"1,2,4-tris(2-ethylhexyl) benzene-1,2,4-tricarboxylate","InChI=1S/C33H54O6/c1-7-13-16-25(10-4)22-37-31(34)28-19-20-29(32(35)38-23-26(11-5)17-14-8-2)30(21-28)33(36)39-24-27(12-6)18-15-9-3/h19-21,25-27H,7-18,22-24H2,1-6H3",KRADHMIOFJQKEZ-UHFFFAOYSA-N,CCCCC(CC)COC(=O)c1ccc(C(=O)OCC(CC)CCCC)c(c1)C(=O)OCC(CC)CCCC,-8.252098343,0.0,1.0,G1,546.789,8.8062,157.2075,39.0,6.0,0.0,6.0,21.0,222.0,1.0,0.0,0.0,1.0,78.9,237.1100422,3.097732065,848.5960129
2520,A-4216,4-(aminomethyl)-2-methoxyphenol hydrochloride,"InChI=1S/C8H11NO2.Cl/c1-11-8-4-6(5-9)2-3-7(8)10;/h2-4,10H,5,9H2,1H3;",LOYPVODLNGWOLM-UHFFFAOYSA-N,[Cl].COc1cc(CN)ccc1O,0.018846252,0.0,1.0,G1,188.634,1.549,48.4032,12.0,3.0,2.0,4.0,2.0,67.0,1.0,0.0,0.0,1.0,55.48,77.56205028,1.21e-06,252.8132181
4887,B-1692,1-heptanethiol,"InChI=1S/C7H16S/c1-2-3-4-5-6-7-8/h8H,2-7H2,1H3",VPIAKHNXCOTPAY-UHFFFAOYSA-N,CCCCCCCS,-4.1549,0.0,1.0,G1,132.272,2.8866,42.612,8.0,1.0,1.0,1.0,5.0,50.0,0.0,0.0,0.0,0.0,0.0,58.08397038,2.530060457,29.36806555
2150,A-3542,toluenesulphonamide,"InChI=1S/C7H9NO2S/c1-6-4-2-3-5-7(6)11(8,9)10/h2-5H,1H3,(H2,8,9,10)",YCMLQMDWSXFTIF-UHFFFAOYSA-N,Cc1ccccc1[S](N)(=O)=O,-1.525986853,0.251725097,2.0,G3,171.221,0.64242,42.5522,11.0,2.0,1.0,4.0,1.0,60.0,1.0,0.0,0.0,1.0,60.16,65.89701182,3.372194811,356.4582525
419,A-719,ammonia,InChI=1S/H3N/h1H3,QGZKDVFQNNGYKY-UHFFFAOYSA-N,N,1.451806889,0.029165464,4.0,G5,17.031,0.162,5.0221,1.0,1.0,1.0,1.0,0.0,8.0,0.0,0.0,0.0,0.0,35.0,7.504228124,0.0,0.0
5488,B-2358,"benzenamine, 2-bromo-5-nitro-","InChI=1S/C6H5BrN2O2/c7-5-2-1-4(9(10)11)3-6(5)8/h1-3H,8H2",BAAUCXCLMDAZEL-UHFFFAOYSA-N,Nc1cc(ccc1Br)[N+]([O-])=O,-3.5583,0.0,1.0,G1,217.022,1.9395,45.2088,11.0,3.0,1.0,5.0,1.0,58.0,1.0,0.0,0.0,1.0,69.16,71.29181714,3.151549668,300.6337992
8422,C-2496,"2-sulfamoyl-5-(4-bromobenzenesulfonamido)-1,3,4-thiadiazole","InChI=1S/C8H7BrN4O4S3/c9-5-1-3-6(4-2-5)20(16,17)13-7-11-12-8(18-7)19(10,14)15/h1-4H,(H,11,13)(H2,10,14,15)",QGHSHYIQOYQWHW-UHFFFAOYSA-N,N[S](=O)(=O)C1=NN=C(N[S](=O)(=O)C2=CC=C(Br)C=C2)S1,-2.13,0.0,1.0,G1,399.273,0.7488,76.2327,20.0,7.0,2.0,12.0,4.0,108.0,2.0,0.0,0.0,2.0,132.11,126.8154624,2.290136497,828.8618687
9815,G-825,Methyl pentanoate,"InChI=1S/C6H12O2/c1-3-5-6(7)8-4-2/h3-5H2,1-2H3",OBNCKNCVKJNDBV-UHFFFAOYSA-N,CCCC(=O)OCC,-1.36,0.044003813,3.0,G5,116.16,1.3496,31.541,8.0,2.0,0.0,2.0,3.0,48.0,0.0,0.0,0.0,0.0,26.3,49.83902893,3.055172204,60.92878689
8701,E-89,dichloromethane,InChI=1S/CH2Cl2/c2-1-3/h1H2,YMWUJEATGCHHMB-UHFFFAOYSA-N,ClCCl,-0.63,0.089251267,2.0,G3,84.933,1.4215,16.573,3.0,0.0,0.0,2.0,0.0,20.0,0.0,0.0,0.0,0.0,0.0,29.34578348,1.632993162,2.754887502
9048,F-201,nonanebis(thioic S-acid),"InChI=1S/C9H16O2S2/c10-8(12)6-4-2-1-3-5-7-9(11)13/h1-7H2,(H,10,12)(H,11,13)",FUCIMTBKFFVPSB-UHFFFAOYSA-N,OC(=S)CCCCCCCC(O)=S,-2.39,0.0,1.0,G1,220.359,3.4879,62.7726,13.0,2.0,2.0,4.0,8.0,76.0,0.0,0.0,0.0,0.0,40.46,89.96481594,2.996104998,150.9976368
5879,B-2806,piroxicam,"InChI=1S/C15H13N3O4S/c1-18-13(15(20)17-12-8-4-5-9-16-12)14(19)10-6-2-3-7-11(10)23(18,21)22/h2-9,20H,1H3,(H,16,17)/b15-13+",LDJVNWFKNMYYNT-FYWRMAATSA-N,CN1C(=C(/O)Nc2ccccn2)/C(=O)c3ccccc3[S]1(=O)=O,-4.1586,0.0,1.0,G1,331.353,1.7376,83.2358,23.0,6.0,2.0,8.0,2.0,118.0,2.0,0.0,1.0,3.0,99.6,132.4987072,2.134568459,907.3290497
1378,A-2392,"(1E)-1-(2,6,6-trimethylcyclohex-1-en-1-yl)pent-1-en-3-one; (1E)-1-(2,6,6-trimethylcyclohex-2-en-1-yl)pent-1-en-3-one; (3E)-3-methyl-4-(2,6,6-trimethylcyclohex-1-en-1-yl)but-3-en-2-one; (3E)-3-methyl-4-(2,6,6-trimethylcyclohex-2-en-1-yl)but-3-en-2-one","InChI=1S/C14H22O/c1-5-12(15)8-9-13-11(2)7-6-10-14(13,3)4/h7-9,13H,5-6,10H2,1-4H3/b9-8+",VPKMGDRERYMTJX-CMDGGOBGSA-N,CCC(=O)/C=C/C1C(=CCCC1(C)C)C,-3.992340979,0.0,1.0,G1,206.329,3.9042,64.7,15.0,1.0,0.0,1.0,3.0,84.0,0.0,0.0,1.0,1.0,17.07,93.2599834,2.81001261,294.4605613
7782,C-1471,"n,n-diethylcarbamoylmethyl nalidixate;  nalidixic acid (n,n-diethylcarbamoyl)methyl ester","InChI=1S/C18H23N3O4/c1-5-20(6-2)15(22)11-25-18(24)14-10-21(7-3)17-13(16(14)23)9-8-12(4)19-17/h8-10H,5-7,11H2,1-4H3",XZIBWWMTMXSPOO-UHFFFAOYSA-N,CCN(CC)C(=O)COC(=O)C1=CN(CC)C2=C(C=CC(=N2)C)C1=O,-1.43,0.0,1.0,G1,345.399,1.75002,94.6245,25.0,6.0,0.0,7.0,6.0,134.0,2.0,0.0,0.0,2.0,81.5,145.7697014,2.327241098,853.2553797
1927,A-3175,dimethyl {3-[(hydroxymethyl)amino]-3-oxopropyl}phosphonate,"InChI=1S/C6H14NO5P/c1-11-13(10,12-2)4-3-6(9)7-5-8/h8H,3-5H2,1-2H3,(H,7,9)",MCONGYNHPPCHSD-UHFFFAOYSA-N,CO[P](=O)(CCC(=O)NCO)OC,1.578490674,0.0,1.0,G1,211.154,-0.0716,46.337,13.0,5.0,2.0,7.0,6.0,78.0,0.0,0.0,0.0,0.0,84.86,76.75961051,3.857453651,199.2012921
2013,A-3325,2-amino-3-sulfanylpropanoic acid hydrochloride,"InChI=1S/C3H7NO2S.ClH/c4-2(1-7)3(5)6;/h2,7H,1,4H2,(H,5,6);1H/t2-;/m0./s1",IFQSXNOEEPCSLW-DKWTVANSSA-N,[Cl-].N[C@@H](CS)C(O)=O.[H+],0.621927102,0.032013504,3.0,G5,157.622,-3.5554,30.5762,8.0,3.0,3.0,5.0,2.0,50.0,0.0,0.0,0.0,0.0,63.32,60.55774009,-1.8e-07,84.21299941
9013,F-154,2-[[2-[2-[(2-aminoacetyl)amino]propanoylamino]-4-methylpentanoyl]amino]-3-methylbutanoic acid,"InChI=1S/C16H30N4O5/c1-8(2)6-11(15(23)20-13(9(3)4)16(24)25)19-14(22)10(5)18-12(21)7-17/h8-11,13H,6-7,17H2,1-5H3,(H,18,21)(H,19,22)(H,20,23)(H,24,25)",PAPARZBEAJESED-UHFFFAOYSA-N,CC(C)CC(NC(=O)C(C)NC(=O)CN)C(=O)NC(C(=O)O)C(C)C,-2.13,0.0,1.0,G1,358.439,-0.7939,92.4493,25.0,5.0,5.0,9.0,10.0,144.0,0.0,0.0,0.0,0.0,150.62,147.6431821,5.044630345,492.9167467
6767,B-3987,3-bromo-1-propene,"InChI=1S/C3H5Br/c1-2-3-4/h2H,1,3H2",BHELZAPQIKSEDF-UHFFFAOYSA-N,BrCC=C,-1.4995,0.0,1.0,G1,120.977,1.5673,23.991,4.0,0.0,0.0,1.0,1.0,24.0,0.0,0.0,0.0,0.0,0.0,34.64707983,2.296835262,17.2451125
7171,B-4603,5-hydroxyquinoline,"InChI=1S/C9H7NO/c11-9-5-1-4-8-7(9)3-2-6-10-8/h1-6,11H",GYESAYHWISMZOK-UHFFFAOYSA-N,[O-]c1cccc2[nH+]cccc12,-2.5417,0.0,1.0,G1,145.161,0.7275,39.9497,11.0,1.0,0.0,2.0,0.0,54.0,2.0,0.0,0.0,2.0,37.2,64.12694938,2.913161164,378.7244463
9188,F-453,"(2,4-dioxo-1H-pyrimidin-5-yl)sulfamic acid","InChI=1S/C4H5N3O5S/c8-3-2(7-13(10,11)12)1-5-4(9)6-3/h1,7H,(H,10,11,12)(H2,5,6,8,9)",ZZRMMIWUJLCXPF-UHFFFAOYSA-N,O=C1NC=C(NS(=O)(=O)O)C(=O)N1,-1.77,0.0,1.0,G1,207.167,-1.7221,42.8547,13.0,4.0,4.0,9.0,2.0,72.0,1.0,0.0,0.0,1.0,132.12,71.50761899,3.190830029,511.0713033
4223,B-886,demeton-o,"InChI=1S/C8H19O3PS2/c1-4-9-12(13,10-5-2)11-7-8-14-6-3/h4-8H2,1-3H3",DGLIBALSRMUQDD-UHFFFAOYSA-N,CCO[P](=S)(OCC)OCCSCC,-3.634,0.0,1.0,G1,258.345,3.0536,66.488,14.0,5.0,0.0,6.0,9.0,86.0,0.0,0.0,0.0,0.0,27.69,96.13751965,3.776797253,167.9693269
5252,B-2091,d-fenchone,"InChI=1S/C10H16O/c1-9(2)7-4-5-10(3,6-7)8(9)11/h7H,4-6H2,1-3H3/t7-,10+/m1/s1",LHXDLQBQYFFVNW-XCBNKYQSSA-N,CC1(C)[C@@H]2CC[C@@](C)(C2)C1=O,-1.8507,0.0,1.0,G1,152.237,2.4017,44.236,11.0,1.0,0.0,1.0,0.0,62.0,0.0,2.0,2.0,2.0,17.07,68.17358985,2.416428519,210.1577794
9802,G-704,Fructose,"InChI=1S/C6H12O6/c7-1-3-4(9)5(10)6(11,2-8)12-3/h3-5,7-11H,1-2H2",RFSUNEUAIZKAJO-UHFFFAOYSA-N,OCC1OC(O)(CO)C(O)C1O,0.64,0.0,1.0,G1,180.156,-3.2198,36.008,12.0,6.0,5.0,6.0,2.0,72.0,0.0,1.0,1.0,1.0,110.38,68.64284444,2.724112234,162.1173001