,ID,Name,InChI,InChIKey,SMILES,Solubility,SD,Ocurrences,Group,MolWt,MolLogP,MolMR,HeavyAtomCount,NumHAcceptors,NumHDonors,NumHeteroatoms,NumRotatableBonds,NumValenceElectrons,NumAromaticRings,NumSaturatedRings,NumAliphaticRings,RingCount,TPSA,LabuteASA,BalabanJ,BertzCT
201,A-348,di-tert-butyl sec-butylidene diperoxide,"InChI=1S/C12H26O4/c1-9-12(8,15-13-10(2,3)4)16-14-11(5,6)7/h9H2,1-8H3",HQOVXPHOJANJBR-UHFFFAOYSA-N,CCC(C)(OOC(C)(C)C)OOC(C)(C)C,-4.45076092,0.0,1.0,G1,234.336,3.606,62.542,16.0,4.0,0.0,4.0,5.0,98.0,0.0,0.0,0.0,0.0,36.92,99.06638584,4.21219129,182.04475
5692,B-2590,"1,2-pentanediol, 1-phenyl-2-propyl-","InChI=1S/C14H22O2/c1-3-10-14(16,11-4-2)13(15)12-8-6-5-7-9-12/h5-9,13,15-16H,3-4,10-11H2,1-2H3",FGVUALJOVZKHOH-UHFFFAOYSA-N,CCCC(O)(CCC)C(O)c1ccccc1,-2.648,0.0,1.0,G1,222.328,3.0513,66.1676,16.0,2.0,2.0,2.0,6.0,90.0,1.0,0.0,0.0,1.0,40.46,97.93940754,2.861199326,288.8634681
5707,B-2606,"2h-1,4-benzoxazin-3(4h)-one, 4-methyl-","InChI=1S/C9H9NO2/c1-10-7-4-2-3-5-8(7)12-6-9(10)11/h2-5H,6H2,1H3",DBJMEBUKQVZWMD-UHFFFAOYSA-N,CN1C(=O)COc2ccccc12,-2.1445,0.0,1.0,G1,163.176,1.0418,45.347,12.0,2.0,0.0,3.0,0.0,62.0,1.0,0.0,1.0,2.0,29.54,70.55529931,2.483970775,322.0595034
1662,A-2759,ammonium iron(3+) hexakis(cyano-C)ferrate(4-),InChI=1S/6CN.2Fe.H3N/c6*1-2;;;/h;;;;;;;;1H3/q6*-1;+2;+3;/p+1,ILZWGESBVHGTRX-UHFFFAOYSA-O,[NH4+].[Fe++].[Fe+3].[C-]#N.[C-]#N.[C-]#N.[C-]#N.[C-]#N.[C-]#N,-7.155088449,0.0,1.0,G1,285.837,0.94942,35.7928,15.0,6.0,1.0,9.0,0.0,79.0,0.0,0.0,0.0,0.0,179.24,111.2755864,-3.96e-09,96.5007495
4112,B-743,tetrakis(hydroxymethyl)phosphonium chloride,"InChI=1S/C4H12O4P.ClH/c5-1-9(2-6,3-7)4-8;/h5-8H,1-4H2;1H/q+1;/p-1",AKXUUJCMWZFYMV-UHFFFAOYSA-M,[Cl-].OC[P+](CO)(CO)CO,0.322,0.0,1.0,G1,190.563,-4.1928,35.2632,10.0,4.0,4.0,6.0,4.0,64.0,0.0,0.0,0.0,0.0,80.92,66.24868609,0.0,60.14806784
517,A-916,"sodium 2-amino-4,6-dinitrophenolate","InChI=1S/C6H5N3O5.Na/c7-4-1-3(8(11)12)2-5(6(4)10)9(13)14;/h1-2,10H,7H2;/q;+1/p-1",UENNEPPWFZYINW-UHFFFAOYSA-M,[Na+].Nc1cc(cc(c1[O-])[N+]([O-])=O)[N+]([O-])=O,-1.764813003,0.0,1.0,G1,221.104,-2.8372,43.6092,15.0,6.0,1.0,9.0,2.0,74.0,1.0,0.0,0.0,1.0,135.36,105.2848786,1.96e-06,421.4735477
514,A-908,1-[3-(2-oxoazepane-1-carbonyl)benzoyl]azepan-2-one,"InChI=1S/C20H24N2O4/c23-17-10-3-1-5-12-21(17)19(25)15-8-7-9-16(14-15)20(26)22-13-6-2-4-11-18(22)24/h7-9,14H,1-6,10-13H2",HXZRLUTUNSQNCG-UHFFFAOYSA-N,O=C1CCCCCN1C(=O)c2cccc(c2)C(=O)N3CCCCCC3=O,-3.958346195,0.0,1.0,G1,356.422,2.7722,95.465,26.0,4.0,0.0,6.0,2.0,138.0,1.0,2.0,2.0,3.0,74.76,152.6946862,1.805323134,671.0262957
2900,A-4854,"2-phenyl-1H-1,3-benzodiazole-5-sulfonic acid","InChI=1S/C13H10N2O3S/c16-19(17,18)10-6-7-11-12(8-10)15-13(14-11)9-4-2-1-3-5-9/h1-8H,(H,14,15)(H,16,17,18)",UVCJGUGAGLDPAA-UHFFFAOYSA-N,O[S](=O)(=O)c1ccc2nc([nH]c2c1)c3ccccc3,-2.961106136,0.219847378,2.0,G3,274.301,2.4766,71.3443,19.0,3.0,2.0,6.0,2.0,96.0,3.0,0.0,0.0,3.0,83.05,109.2276063,2.16930407,838.71065
5351,B-2204,"benzenamine, 4,4'-(1,2-ethynediyl)bis-","InChI=1S/C14H12N2/c15-13-7-3-11(4-8-13)1-2-12-5-9-14(16)10-6-12/h3-10H,15-16H2",WAUKJWLKPXRNKT-UHFFFAOYSA-N,Nc1ccc(cc1)C#Cc2ccc(N)cc2,-2.4326,0.0,1.0,G1,208.264,2.2508,67.6888,16.0,2.0,2.0,2.0,0.0,78.0,2.0,0.0,0.0,2.0,52.04,94.89738834,2.212557539,478.1882916
8151,C-2103,1-amino-4-naphthalenesulfonic  acid;  4-amino-1-naphthalenesulfonic acid,"InChI=1S/C10H9NO3S/c11-9-5-6-10(15(12,13)14)8-4-2-1-3-7(8)9/h1-6H,11H2,(H,12,13,14)",NRZRRZAVMCAKEP-UHFFFAOYSA-N,NC1=CC=C(C2=C1C=CC=C2)[S](O)(=O)=O,-2.91,0.0,1.0,G1,223.253,1.6687,58.175,15.0,3.0,2.0,5.0,1.0,78.0,2.0,0.0,0.0,2.0,80.39,87.08159436,2.961958872,619.6001476
210,A-363,"(2E)-1-(2,6,6-trimethylcyclohex-3-en-1-yl)but-2-en-1-one","InChI=1S/C13H20O/c1-5-7-11(14)12-10(2)8-6-9-13(12,3)4/h5-8,10,12H,9H2,1-4H3/b7-5+",XEJGJTYRUWUFFD-FNORWQNLSA-N,C/C=C/C(=O)C1C(C)C=CCC1(C)C,-3.396366501,0.0,1.0,G1,192.302,3.37,60.013,14.0,1.0,0.0,1.0,2.0,78.0,0.0,0.0,1.0,1.0,17.07,86.89504128,2.927965908,270.9601503
6478,B-3463,"2-thiophenesulfonamide, 4-(4-hydroxybenzoyl)-","InChI=1S/C11H9NO4S2/c12-18(15,16)10-5-8(6-17-10)11(14)7-1-3-9(13)4-2-7/h1-6,13H,(H2,12,15,16)",OJXOXNIZNJIMLU-UHFFFAOYSA-N,N[S](=O)(=O)c1scc(c1)C(=O)c2ccc(O)cc2,-2.8612,0.0,1.0,G1,283.33,1.3321,67.2315,18.0,5.0,2.0,7.0,3.0,94.0,2.0,0.0,0.0,2.0,97.46,107.5502252,2.351385713,686.0882216
4864,B-1663,5-indanol,"InChI=1S/C9H10O/c10-9-5-4-7-2-1-3-8(7)6-9/h4-6,10H,1-3H2",PEHSSTUGJUBZBI-UHFFFAOYSA-N,Oc1ccc2CCCc2c1,-1.3285,0.0,1.0,G1,134.178,1.8809,40.1318,10.0,1.0,1.0,1.0,0.0,52.0,1.0,0.0,1.0,2.0,20.23,60.31463206,2.522624863,252.9052209
9185,F-448,"2-(3-hydroxy-2,5-dioxo-1-phenylpyrrolidin-3-yl)acetic acid","InChI=1S/C12H11NO5/c14-9-6-12(18,7-10(15)16)11(17)13(9)8-4-2-1-3-5-8/h1-5,18H,6-7H2,(H,15,16)",SBUJOYSGTMYVDY-UHFFFAOYSA-N,O=C(O)CC1(O)CC(=O)N(C2=CC=CC=C2)C1=O,-0.68,0.0,1.0,G1,249.222,0.1557,60.7546,18.0,4.0,2.0,6.0,3.0,94.0,1.0,1.0,1.0,2.0,94.91,102.4480921,2.332408243,512.458872
7041,B-4386,"propanoic acid, 2-[(ethoxythioxomethyl)thio]-","InChI=1S/C6H10O3S2/c1-3-9-6(10)11-4(2)5(7)8/h4H,3H2,1-2H3,(H,7,8)",LWNPIVOFJQQAMH-UHFFFAOYSA-N,CCOC(=S)SC(C)C(O)=O,-1.4489,0.0,1.0,G1,194.277,1.5141,48.9128,11.0,4.0,1.0,5.0,3.0,64.0,0.0,0.0,0.0,0.0,46.53,75.11515295,3.659888665,157.9063854
2583,A-4326,1-cyanoprop-2-en-1-yl acetate,"InChI=1S/C6H7NO2/c1-3-6(4-7)9-5(2)8/h3,6H,1H2,2H3",MEHLEOUIWVWVBF-UHFFFAOYSA-N,CC(=O)OC(C=C)C#N,-0.898693945,0.0,1.0,G1,125.127,0.62768,31.364,9.0,3.0,0.0,3.0,2.0,48.0,0.0,0.0,0.0,0.0,50.09,53.54200558,3.73097891,156.9310205
7780,C-1467,"naproxen [n,n-bis(2-hydroxyethyl)carbamoyl]methyl ester","InChI=1S/C20H25NO6/c1-14(20(25)27-13-19(24)21(7-9-22)8-10-23)15-3-4-17-12-18(26-2)6-5-16(17)11-15/h3-6,11-12,14,22-23H,7-10,13H2,1-2H3",FZLRPSHQNAHYAG-UHFFFAOYSA-N,COC1=CC=C2C=C(C=CC2=C1)C(C)C(=O)OCC(=O)N(CCO)CCO,-2.96,0.0,1.0,G1,375.421,1.3083,100.6256,27.0,6.0,2.0,7.0,9.0,146.0,2.0,0.0,0.0,2.0,96.3,157.6609246,2.014794109,785.1356398
8760,E-468,nicotine,"InChI=1S/C10H14N2/c1-12-7-3-5-10(12)9-4-2-6-11-8-9/h2,4,6,8,10H,3,5,7H2,1H3",SNICXCGAKADSCV-UHFFFAOYSA-N,n(cccc1C(N(CC2)C)C2)c1,0.79,0.0,1.0,G1,162.236,1.8483,48.842,12.0,2.0,0.0,2.0,1.0,64.0,1.0,1.0,1.0,2.0,16.13,73.22976419,2.194591658,245.275309
262,A-441,tetrabutylazanium bromide,"InChI=1S/C16H36N.BrH/c1-5-9-13-17(14-10-6-2,15-11-7-3)16-12-8-4;/h5-16H2,1-4H3;1H/q+1;/p-1",JRMUNVKIHCOMHV-UHFFFAOYSA-M,[Br-].CCCC[N+](CCCC)(CCCC)CCCC,1.332024844,0.0,1.0,G1,322.375,2.0076,79.3604,18.0,0.0,0.0,2.0,12.0,112.0,0.0,0.0,0.0,0.0,0.0,126.69589,0.0,121.6661751
9273,F-601,2-(carboxymethylsulfanyl)-2-phenylacetic acid,"InChI=1S/C10H10O4S/c11-8(12)6-15-9(10(13)14)7-4-2-1-3-5-7/h1-5,9H,6H2,(H,11,12)(H,13,14)",AIUNWFBYULOSRS-UHFFFAOYSA-N,O=C(O)CSC(C(=O)O)C1=CC=CC=C1,-1.23,0.03705,2.0,G3,226.253,1.6301,56.9126,15.0,3.0,2.0,5.0,5.0,80.0,1.0,0.0,0.0,1.0,74.6,90.92579331,2.750401428,349.6998379
871,A-1503,tetramethylsilane,"InChI=1S/C4H12Si/c1-5(2,3)4/h1-4H3",CZDYPVPMEAXLPK-UHFFFAOYSA-N,C[Si](C)(C)C,-3.653340518,0.0,1.0,G1,88.226,1.9544,29.21,5.0,0.0,0.0,1.0,0.0,32.0,0.0,0.0,0.0,0.0,0.0,35.21506462,3.023715784,19.11941548
7282,C-254,5-tert-butyl-5-(3-methylbut-2-enyl)barbituric  acid,"InChI=1S/C13H20N2O3/c1-8(2)6-7-13(12(3,4)5)9(16)14-11(18)15-10(13)17/h6H,7H2,1-5H3,(H2,14,15,16,17,18)",DRLSBGXFFUXZIN-UHFFFAOYSA-N,CC(C)=CCC1(C(=O)NC(=O)NC1=O)C(C)(C)C,-3.55,0.0,1.0,G1,252.314,1.7412,67.6174,18.0,3.0,2.0,5.0,2.0,100.0,0.0,1.0,1.0,1.0,75.27,107.0074129,3.274877644,406.0075356
9240,F-555,"1-(1,5-dimethyl-3-oxo-2-phenylpyrazol-4-yl)-3-ethylurea","InChI=1S/C14H18N4O2/c1-4-15-14(20)16-12-10(2)17(3)18(13(12)19)11-8-6-5-7-9-11/h5-9H,4H2,1-3H3,(H2,15,16,20)",CCCTUMZHWVZMQA-UHFFFAOYSA-N,CCNC(=O)NC1=C(C)N(C)N(C2=CC=CC=C2)C1=O,-1.83,0.0,1.0,G1,274.324,1.62582,78.4424,20.0,4.0,2.0,6.0,3.0,106.0,2.0,0.0,0.0,2.0,68.06,116.5531814,2.471491535,670.4726174
50,A-73,S-ethyl dipropylthiocarbamate,"InChI=1S/C9H19NOS/c1-4-7-10(8-5-2)9(11)12-6-3/h4-8H2,1-3H3",GUVLYNGULCJVDO-UHFFFAOYSA-N,CCCN(CCC)C(=O)SCC,-2.703174404,0.018736413,2.0,G3,189.324,2.9815,55.683,12.0,2.0,0.0,3.0,5.0,72.0,0.0,0.0,0.0,0.0,20.31,79.70325374,3.810794755,121.6969429
4163,B-807,"benzene, 1-methoxy-4-(2-propenyl)-","InChI=1S/C10H12O/c1-3-4-9-5-7-10(11-2)8-6-9/h3,5-8H,1,4H2,2H3",ZFMSMUAANRJZFM-UHFFFAOYSA-N,COc1ccc(CC=C)cc1,-2.9209,0.0,1.0,G1,148.205,2.4237,46.895,11.0,1.0,0.0,1.0,3.0,58.0,1.0,0.0,0.0,1.0,9.23,67.31511377,2.736673954,223.1330225
7012,B-4348,furathiocarb,"InChI=1S/C18H26N2O5S/c1-6-7-11-23-16(21)19(4)26-20(5)17(22)24-14-10-8-9-13-12-18(2,3)25-15(13)14/h8-10H,6-7,11-12H2,1-5H3",HAWJXYBZNNRMNO-UHFFFAOYSA-N,CCCCOC(=O)N(C)SN(C)C(=O)Oc1cccc2CC(C)(C)Oc12,-4.5412,0.0209,2.0,G3,382.482,4.2624,100.25,26.0,6.0,0.0,8.0,6.0,144.0,1.0,0.0,1.0,2.0,68.31,158.3820896,1.923244044,664.9815798
7578,C-1051,celecoxib,"InChI=1S/C17H14F3N3O2S/c1-11-2-4-12(5-3-11)15-10-16(17(18,19)20)22-23(15)13-6-8-14(9-7-13)26(21,24)25/h2-10H,1H3,(H2,21,24,25)",RZEKVGVHFLEQIL-UHFFFAOYSA-N,CC1=CC=C(C=C1)C2=CC(=N[N]2C3=CC=C(C=C3)[S](N)(=O)=O)C(F)(F)F,-4.74,0.0,1.0,G1,381.379,3.51392,90.1122,26.0,4.0,1.0,9.0,3.0,136.0,3.0,0.0,0.0,3.0,77.98,147.479982,2.160670373,1038.352309
5718,B-2617,"methanesulfonamide, n-phenyl-n-((1,1,2,2-tetrach","InChI=1S/C9H8Cl4FNO2S2/c1-19(16,17)15(7-5-3-2-4-6-7)18-9(12,13)8(10,11)14/h2-6H,1H3",SVIKNKPDPGCMAE-UHFFFAOYSA-N,C[S](=O)(=O)N(SC(Cl)(Cl)C(F)(Cl)Cl)c1ccccc1,-5.1485,0.0,1.0,G1,387.112,4.3331,81.3378,19.0,3.0,0.0,10.0,5.0,108.0,1.0,0.0,0.0,1.0,37.38,134.6839269,3.165799885,532.9006318
4309,B-994,lumazine,"InChI=1S/C6H4N4O2/c11-5-3-4(8-2-1-7-3)9-6(12)10-5/h1-2H,(H2,8,9,10,11,12)",UYEUUXMDVNYCAM-UHFFFAOYSA-N,O=C1NC(=O)c2nccnc2N1,-2.1183,0.0,1.0,G1,164.124,-0.9936,40.7794,12.0,4.0,2.0,6.0,0.0,60.0,2.0,0.0,0.0,2.0,91.5,65.31470378,3.09393227,526.5493905
1298,A-2253,4-methylbenzoyl 4-methylbenzene-1-carboperoxoate,"InChI=1S/C16H14O4/c1-11-3-7-13(8-4-11)15(17)19-20-16(18)14-9-5-12(2)6-10-14/h3-10H,1-2H3",AGKBXKFWMQLFGZ-UHFFFAOYSA-N,Cc1ccc(cc1)C(=O)OOC(=O)c2ccc(C)cc2,-6.798351882,0.0,1.0,G1,270.284,3.23224,73.189,20.0,4.0,0.0,4.0,2.0,102.0,2.0,0.0,0.0,2.0,52.6,116.4276958,1.943757809,554.4300615
2556,A-4276,calcium diformate,"InChI=1S/2CH2O2.Ca/c2*2-1-3;/h2*1H,(H,2,3);/q;;+2/p-2",CBOCVOKPQGJKKJ-UHFFFAOYSA-L,[Ca++].[O-]C=O.[O-]C=O,0.121211094,0.0,1.0,G1,130.112,-3.6486,17.882,7.0,4.0,0.0,5.0,0.0,36.0,0.0,0.0,0.0,0.0,80.26,70.137304,-4e-08,30.67103446
6212,B-3178,"cyclopropanecarboxylic acid, 3-(2,2-dichloroethe","InChI=1S/C22H19Cl2NO3/c1-22(2)17(12-19(23)24)20(22)21(26)28-18(13-25)14-7-6-10-16(11-14)27-15-8-4-3-5-9-15/h3-12,17-18,20H,1-2H3",KAATUXNTWXVJKI-UHFFFAOYSA-N,CC1(C)C(C=C(Cl)Cl)C1C(=O)OC(C#N)c2cccc(Oc3ccccc3)c2,-6.5587,0.72935,2.0,G2,416.304,6.17798,107.954,28.0,4.0,0.0,6.0,6.0,144.0,2.0,1.0,1.0,3.0,59.32,173.830209,1.721481495,930.2980937
3005,A-5033,tributyl-2-thiourea,"InChI=1S/C13H28N2S/c1-4-7-10-14-13(16)15(11-8-5-2)12-9-6-3/h4-12H2,1-3H3,(H,14,16)",UDYXMTORTDACTG-UHFFFAOYSA-N,CCCCNC(=S)N(CCCC)CCCC,-4.184066506,0.0,1.0,G1,244.448,3.5632,76.8977,16.0,1.0,1.0,3.0,9.0,96.0,0.0,0.0,0.0,0.0,15.27,106.7870325,3.883696474,163.3155292
5836,B-2755,"d-glucuronic acid, .gamma.-lactone","InChI=1S/C6H8O6/c7-1-2(8)5-3(9)4(10)6(11)12-5/h1-5,8-10H/t2-,3+,4-,5+/m0/s1",UYUXSRADSPPKRZ-SKNVOMKLSA-N,O[C@@H](C=O)[C@H]1OC(=O)[C@@H](O)[C@H]1O,0.1641,0.0,1.0,G1,176.124,-2.8066,33.9644,12.0,6.0,3.0,6.0,2.0,68.0,0.0,1.0,1.0,1.0,104.06,67.37742113,2.69867759,202.2149912
5115,B-1942,"cyclopentanecarbonitrile, 2-oxo-","InChI=1S/C6H7NO/c7-4-5-2-1-3-6(5)8/h5H,1-3H2",IPMQSLPLJDKUPI-UHFFFAOYSA-N,O=C1CCCC1C#N,-0.3567,0.0,1.0,G1,109.128,0.87918,27.961,8.0,2.0,0.0,2.0,0.0,42.0,0.0,1.0,1.0,1.0,40.86,48.11223223,2.579519094,145.09775
7813,C-1537,4-heptanone;  dipropyl  ketone,"InChI=1S/C7H14O/c1-3-5-7(8)6-4-2/h3-6H2,1-2H3",HCFAJYNVAYBARA-UHFFFAOYSA-N,CCCC(=O)CCC,-1.48,0.106151098,3.0,G5,114.188,2.1557,34.823,8.0,1.0,0.0,1.0,4.0,48.0,0.0,0.0,0.0,0.0,17.07,51.09042581,3.055172204,58.78707744
6044,B-2989,propentofylline,"InChI=1S/C15H22N4O3/c1-4-8-18-10-16-13-12(18)14(21)19(15(22)17(13)3)9-6-5-7-11(2)20/h10H,4-9H2,1-3H3",RBQOQRRFDPXAGN-UHFFFAOYSA-N,CCCn1cnc2N(C)C(=O)N(CCCCC(C)=O)C(=O)c12,-0.9811,0.0,1.0,G1,306.366,1.066,84.057,22.0,7.0,0.0,7.0,7.0,120.0,2.0,0.0,0.0,2.0,78.89,127.7450739,2.409663182,797.4460674
9351,F-688,4-(3-hydroxyphenyl)sulfonylthiophene-2-sulfonamide,"InChI=1S/C10H9NO5S3/c11-19(15,16)10-5-9(6-17-10)18(13,14)8-3-1-2-7(12)4-8/h1-6,12H,(H2,11,15,16)",LRQUYRADZABVMX-UHFFFAOYSA-N,NS(=O)(=O)C1=CC(S(=O)(=O)C2=CC(O)=CC=C2)=CS1,-2.72,0.0,1.0,G1,319.385,0.9339,69.2508,19.0,6.0,2.0,9.0,3.0,102.0,2.0,0.0,0.0,2.0,114.53,113.6491593,2.549475349,820.3549478
1072,A-1843,1-(2-ethylbutyl)cyclohexane-1-carboxylic acid,"InChI=1S/C13H24O2/c1-3-11(4-2)10-13(12(14)15)8-6-5-7-9-13/h11H,3-10H2,1-2H3,(H,14,15)",XRKJBJLXKLOLKS-UHFFFAOYSA-N,CCC(CC)CC1(CCCCC1)C(O)=O,-4.281694517,0.0,1.0,G1,212.333,3.8478,61.8428,15.0,1.0,1.0,2.0,5.0,88.0,0.0,1.0,1.0,1.0,37.3,93.0684811,2.672386231,200.5814926
4235,B-907,mexacarbate,"InChI=1S/C12H18N2O2/c1-8-6-10(16-12(15)13-3)7-9(2)11(8)14(4)5/h6-7H,1-5H3,(H,13,15)",YNEVBPNZHBAYOA-UHFFFAOYSA-N,CNC(=O)Oc1cc(C)c(N(C)C)c(C)c1,-3.3469,0.0,1.0,G1,222.288,2.08764,65.3267,16.0,3.0,1.0,4.0,2.0,88.0,1.0,0.0,0.0,1.0,41.57,96.20581899,3.048039434,377.0003882
5011,B-1832,nonanonitrile,"InChI=1S/C9H17N/c1-2-3-4-5-6-7-8-9-10/h2-8H2,1H3",PLZZPPHAMDJOSR-UHFFFAOYSA-N,CCCCCCCCC#N,-3.2987,0.0,1.0,G1,139.242,3.26058,43.606,10.0,1.0,0.0,1.0,6.0,58.0,0.0,0.0,0.0,0.0,23.79,64.05136762,2.723360599,91.3916136
7956,C-1803,"2,5-dichlorophenoxyacetic acid","InChI=1S/C8H6Cl2O3/c9-5-1-2-6(10)7(3-5)13-4-8(11)12/h1-3H,4H2,(H,11,12)",YVPLLFUCNGVUAY-UHFFFAOYSA-N,OC(=O)COC1=C(Cl)C=CC(=C1)Cl,-2.62,0.0,1.0,G1,221.039,2.4568,49.5928,13.0,2.0,1.0,5.0,3.0,70.0,1.0,0.0,0.0,1.0,46.53,84.83712088,2.750922986,325.1652198
3839,B-298,didecyl phthalate,"InChI=1S/C28H46O4/c1-3-5-7-9-11-13-15-19-23-31-27(29)25-21-17-18-22-26(25)28(30)32-24-20-16-14-12-10-8-6-4-2/h17-18,21-22H,3-16,19-20,23-24H2,1-2H3",PGIBJVOPLXHHGS-UHFFFAOYSA-N,CCCCCCCCCCOC(=O)c1ccccc1C(=O)OCCCCCCCCCC,-9.3076,0.0,1.0,G1,446.672,8.2816,132.227,32.0,4.0,0.0,4.0,20.0,182.0,1.0,0.0,0.0,1.0,52.6,196.0102643,2.237567867,558.2048654
124,A-208,1-(2-ethylbutyl)cyclohexane-1-carbonitrile,"InChI=1S/C13H23N/c1-3-12(4-2)10-13(11-14)8-6-5-7-9-13/h12H,3-10H2,1-2H3",DRMOLJPDSCAGCC-UHFFFAOYSA-N,CCC(CC)CC1(CCCCC1)C#N,-6.587338232,0.0,1.0,G1,193.334,4.28678,59.82,14.0,1.0,0.0,1.0,4.0,80.0,0.0,1.0,1.0,1.0,23.79,88.50530493,2.55666339,191.7713275
8542,D-951,1-lauryl-4-carboxy-2-pyrrolodone,"InChI=1S/C17H31NO3/c1-2-3-4-5-6-7-8-9-10-11-12-18-14-15(17(20)21)13-16(18)19/h15H,2-14H2,1H3,(H,20,21)",ZNQTZHTYSHEJLH-UHFFFAOYSA-N,CCCCCCCCCCCCN1CC(CC1=O)C(O)=O,-3.223,0.0,1.0,G1,297.439,3.8404,84.1668,21.0,2.0,1.0,4.0,12.0,122.0,0.0,1.0,1.0,1.0,57.61,128.4496053,1.92662966,317.1570813
6165,B-3123,hydramethylnon,"InChI=1S/C25H24F6N4/c1-23(2)15-32-22(33-16-23)35-34-21(13-7-17-3-9-19(10-4-17)24(26,27)28)14-8-18-5-11-20(12-6-18)25(29,30)31/h3-14H,15-16H2,1-2H3,(H2,32,33,35)/b13-7+,14-8+",IQVNEKKDSLOHHK-FNCQTZNRSA-N,CC1(C)CNC(=NC1)N\N=C(/C=C/c2ccc(cc2)C(F)(F)F)\C=C\c3ccc(cc3)C(F)(F)F,-7.916,0.0,1.0,G1,494.483,6.3818,125.6124,35.0,4.0,2.0,10.0,5.0,186.0,2.0,0.0,1.0,3.0,48.78,198.7014254,1.801213279,1053.03239
8231,C-2212,"1-[3-(aziridin-1-yl)-4,6-dinitrobenzoyl]piperidine","InChI=1S/C14H16N4O5/c19-14(16-4-2-1-3-5-16)10-8-12(15-6-7-15)13(18(22)23)9-11(10)17(20)21/h8-9H,1-7H2",DFFPUVDMNIWTAL-UHFFFAOYSA-N,[O-][N+](=O)C1=C(C=C(C(=O)N2CCCCC2)C(=C1)[N+]([O-])=O)N3CC3,-3.17,0.0,1.0,G1,320.305,1.9491,81.7183,23.0,6.0,0.0,9.0,4.0,122.0,1.0,2.0,2.0,3.0,109.6,131.3264186,2.061190719,679.9903537
9168,F-426,ethyl 2-acetamido-3-phenylpropanoate,"InChI=1S/C13H17NO3/c1-3-17-13(16)12(14-10(2)15)9-11-7-5-4-6-8-11/h4-8,12H,3,9H2,1-2H3,(H,14,15)",YIVZYFDBEPMPNL-UHFFFAOYSA-N,CCOC(=O)C(CC1=CC=CC=C1)NC(C)=O,-1.86,0.0,1.0,G1,235.283,1.2969,64.3837,17.0,3.0,1.0,4.0,5.0,92.0,1.0,0.0,0.0,1.0,55.4,100.9724495,2.695351301,375.5107816
8698,E-59,"2,3-dimethylnaphthalene","InChI=1S/C12H12/c1-9-7-11-5-3-4-6-12(11)8-10(9)2/h3-8H,1-2H3",WWGUMAYGTYQSGA-UHFFFAOYSA-N,Cc1c(C)cc2ccccc2c1,-4.72,0.08745,2.0,G3,156.228,3.45664,53.422,12.0,0.0,0.0,0.0,0.0,60.0,2.0,0.0,0.0,2.0,0.0,72.84295188,2.839519943,372.8078662
7653,C-1239,penbutolol,"InChI=1S/C18H29NO2/c1-18(2,3)19-12-15(20)13-21-17-11-7-6-10-16(17)14-8-4-5-9-14/h6-7,10-11,14-15,19-20H,4-5,8-9,12-13H2,1-3H3",KQXKVJAGOJTNJS-UHFFFAOYSA-N,CC(C)(C)NCC(O)COC1=C(C=CC=C1)C2CCCC2,-1.84,0.0,1.0,G1,291.435,3.472,86.9085,21.0,3.0,2.0,3.0,6.0,118.0,1.0,1.0,1.0,2.0,41.49,128.2625185,1.876651522,433.0896211
5349,B-2202,5-oxo-3-phenyl-hexanoic acid,"InChI=1S/C12H14O3/c1-9(13)7-11(8-12(14)15)10-5-3-2-4-6-10/h2-6,11H,7-8H2,1H3,(H,14,15)",DUGWBMXFSCILOV-UHFFFAOYSA-N,CC(=O)CC(CC(O)=O)c1ccccc1,-1.4463,0.0,1.0,G1,206.241,2.224,56.7338,15.0,2.0,1.0,3.0,5.0,80.0,1.0,0.0,0.0,1.0,54.37,88.73833376,2.805107056,327.1446814
4308,B-993,caulophylline,"InChI=1S/C12H16N2O/c1-13-6-9-5-10(8-13)11-3-2-4-12(15)14(11)7-9/h2-4,9-10H,5-8H2,1H3/t9-,10-/m0/s1",CULUKMPMGVXCEI-UWVGGRQHSA-N,CN1C[C@@H]2C[C@@H](C1)C3=CC=CC(=O)N3C2,0.6484,0.0,1.0,G1,204.273,0.8972,59.047,15.0,3.0,0.0,3.0,0.0,80.0,1.0,1.0,2.0,3.0,25.24,89.32531085,2.096911174,437.4934142
8094,C-2015,7-propyltheophylline,"InChI=1S/C10H14N4O2/c1-4-5-14-6-11-8-7(14)9(15)13(3)10(16)12(8)2/h6H,4-5H2,1-3H3",HGFWMGARSDHJFP-UHFFFAOYSA-N,CCC[N]1C=NC2=C1C(=O)N(C)C(=O)N2C,0.02,0.0,1.0,G1,222.248,-0.1563,60.506,16.0,6.0,0.0,6.0,2.0,86.0,2.0,0.0,0.0,2.0,61.82,91.75884125,2.947769379,647.1083863
5799,B-2713,atenolol,"InChI=1S/C14H22N2O3/c1-10(2)16-8-12(17)9-19-13-5-3-11(4-6-13)7-14(15)18/h3-6,10,12,16-17H,7-9H2,1-2H3,(H2,15,18)",METKIMKYRPQLGS-UHFFFAOYSA-N,CC(C)NCC(O)COc1ccc(CC(N)=O)cc1,-1.3016,0.2758,2.0,G3,266.341,0.4521,73.9809,19.0,4.0,3.0,5.0,8.0,106.0,1.0,0.0,0.0,1.0,84.58,113.309994,2.346203475,390.1824796
8727,E-299,2-butanone,"InChI=1S/C4H8O/c1-3-4(2)5/h3H2,1-2H3",ZWEHNKRNPOVVGH-UHFFFAOYSA-N,O=C(CC)C,0.52,0.087876046,3.0,G5,72.107,0.9854,20.972,5.0,1.0,0.0,1.0,1.0,30.0,0.0,0.0,0.0,0.0,17.07,31.99559947,2.847378923,38.91260938
1326,A-2298,octadecane,"InChI=1S/C18H38/c1-3-5-7-9-11-13-15-17-18-16-14-12-10-8-6-4-2/h3-18H2,1-2H3",RZJRJXONCZWCBN-UHFFFAOYSA-N,CCCCCCCCCCCCCCCCCC,-7.627539949,0.0,1.0,G1,254.502,7.2678,85.22,18.0,0.0,0.0,0.0,15.0,110.0,0.0,0.0,0.0,0.0,0.0,116.943267,2.862306209,112.0
1226,A-2118,"(5E)-5-[(4-chlorophenyl)methylidene]-2,2-dimethylcyclopentan-1-one","InChI=1S/C14H15ClO/c1-14(2)8-7-11(13(14)16)9-10-3-5-12(15)6-4-10/h3-6,9H,7-8H2,1-2H3/b11-9+",DHZKFHRKOKWCKA-PKNBQFBNSA-N,CC1(C)CC\C(=C/c2ccc(Cl)cc2)C1=O,-5.671591194,0.0,1.0,G1,234.726,4.1125,67.451,16.0,1.0,0.0,2.0,1.0,84.0,1.0,1.0,1.0,2.0,17.07,101.1202942,2.264179736,440.3080752
972,A-1688,potassium iodide,InChI=1S/HI.K/h1H;/q;+1/p-1,NLKNQRATVPKPDG-UHFFFAOYSA-M,[K+].[I-],0.935222717,0.092431073,3.0,G5,166.002,-5.992,0.0,2.0,0.0,0.0,2.0,0.0,8.0,0.0,0.0,0.0,0.0,0.0,73.43483487,0.0,2.0
4645,B-1395,3-chloroiodobenzene,InChI=1S/C6H4ClI/c7-5-2-1-3-6(8)4-5/h1-4H,JMLWXCJXOYDXRN-UHFFFAOYSA-N,Clc1cccc(I)c1,-3.55,0.009,2.0,G3,238.455,2.9446,44.169,8.0,0.0,0.0,2.0,0.0,42.0,1.0,0.0,0.0,1.0,0.0,66.99650747,3.077660438,168.3883389
7206,C-33,l-serine,"InChI=1S/C3H7NO3/c4-2(1-5)3(6)7/h2,5H,1,4H2,(H,6,7)",MTCFGRXMJLQNBG-UHFFFAOYSA-N,NC(CO)C(O)=O,-0.02,0.421210592,4.0,G5,105.093,-1.6094,22.697,7.0,3.0,3.0,4.0,2.0,42.0,0.0,0.0,0.0,0.0,83.55,40.55901556,3.343417059,72.58027135
5420,B-2280,"nicotinic acid, butyl ester","InChI=1S/C10H13NO2/c1-2-3-7-13-10(12)9-5-4-6-11-8-9/h4-6,8H,2-3,7H2,1H3",DQULIMIQTCDUAN-UHFFFAOYSA-N,CCCCOC(=O)c1cccnc1,-1.8367,0.0,1.0,G1,179.219,2.0385,49.4275,13.0,3.0,0.0,3.0,4.0,70.0,1.0,0.0,0.0,1.0,39.19,77.750829,2.404796656,258.8870727
6332,B-3309,"acrylic acid, 3,3-dibromo-2-chloro-","InChI=1S/C3HBr2ClO2/c4-2(5)1(6)3(7)8/h(H,7,8)",NHSPPJFIJJWVTN-UHFFFAOYSA-N,OC(=O)C(Cl)=C(Br)Br,-0.6873,0.0,1.0,G1,264.3,2.2687,38.3688,8.0,1.0,1.0,5.0,1.0,46.0,0.0,0.0,0.0,0.0,37.3,67.77364951,4.226619287,138.2188491