,ID,Name,InChI,InChIKey,SMILES,Solubility,SD,Ocurrences,Group,MolWt,MolLogP,MolMR,HeavyAtomCount,NumHAcceptors,NumHDonors,NumHeteroatoms,NumRotatableBonds,NumValenceElectrons,NumAromaticRings,NumSaturatedRings,NumAliphaticRings,RingCount,TPSA,LabuteASA,BalabanJ,BertzCT
2458,A-4112,"2,6,6-trimethylcyclohex-2-ene-1,4-dione","InChI=1S/C9H12O2/c1-6-4-7(10)5-9(2,3)8(6)11/h4H,5H2,1-3H3",AYJXHIDNNLJQDT-UHFFFAOYSA-N,CC1=CC(=O)CC(C)(C)C1=O,-0.87790415,0.0,1.0,G1,152.193,1.5008,42.169,11.0,2.0,0.0,2.0,0.0,60.0,0.0,0.0,1.0,1.0,34.14,66.28639796,3.054290083,246.2883479
8551,D-1084,disperse red 11,"InChI=1S/C15H12N2O3/c1-20-10-6-9(16)11-12(13(10)17)15(19)8-5-3-2-4-7(8)14(11)18/h2-6H,16-17H2,1H3",TUXJTJITXCHUEL-UHFFFAOYSA-N,COc1cc(N)c2C(=O)c3ccccc3C(=O)c2c1N,-5.746,0.0,1.0,G1,268.272,1.635,75.1258,20.0,5.0,2.0,5.0,1.0,100.0,2.0,0.0,1.0,3.0,95.41,114.6938633,2.39050315,765.9542099
1583,A-2663,dialuminium(3+) ion dicalcium pentaoxidandiide,InChI=1S/2Al.2Ca.5O/q2*+3;2*+2;5*-2,HGCYUAJUOYGULZ-UHFFFAOYSA-N,[O--].[O--].[O--].[O--].[O--].[Al+3].[Al+3].[Ca++].[Ca++],-6.330647093,0.0,1.0,G1,214.115,-2.1172,26.4485,9.0,0.0,0.0,9.0,0.0,40.0,0.0,0.0,0.0,0.0,142.5,134.7508069,0.0,12.91968454
6177,B-3138,"1,1'-biphenyl, 2,2',3,4',5-pentachloro-",InChI=1S/C12H5Cl5/c13-6-1-2-8(10(15)4-6)9-3-7(14)5-11(16)12(9)17/h1-5H,SUOAMBOBSWRMNQ-UHFFFAOYSA-N,Clc1ccc(c(Cl)c1)c2cc(Cl)cc(Cl)c2Cl,-7.82,0.0,1.0,G1,326.437,6.6206,76.928,17.0,0.0,0.0,5.0,1.0,88.0,2.0,0.0,0.0,2.0,0.0,124.0048285,2.678715123,577.3489384
6005,B-2944,"2,2',3,3',5,5',6-heptachlorobiphenyl",InChI=1S/C12H3Cl7/c13-4-1-5(10(17)6(14)2-4)9-11(18)7(15)3-8(16)12(9)19/h1-3H,WCIBKXHMIXUQHK-UHFFFAOYSA-N,Clc1cc(Cl)c(Cl)c(c1)c2c(Cl)c(Cl)cc(Cl)c2Cl,-8.5901,0.0,1.0,G1,395.327,7.9274,86.948,19.0,0.0,0.0,7.0,1.0,100.0,2.0,0.0,0.0,2.0,0.0,144.6113609,2.865656174,637.6079667
762,A-1329,4-(propan-2-yl)aniline,"InChI=1S/C9H13N/c1-7(2)8-3-5-9(10)6-4-8/h3-7H,10H2,1-2H3",LRTFPLFDLJYEKT-UHFFFAOYSA-N,CC(C)c1ccc(N)cc1,-1.785831196,0.0,1.0,G1,135.21,2.3922,44.9434,10.0,1.0,1.0,1.0,1.0,54.0,1.0,0.0,0.0,1.0,26.02,61.86612016,2.893762784,198.4731805
678,A-1177,"[2-[2-oxo-5-(2,4,4-trimethylpentan-2-yl)-3H-1-benzofuran-3-yl]-4-(2,4,4-trimethylpentan-2-yl)phenyl] acetate","InChI=1S/C32H44O4/c1-20(33)35-25-14-12-21(31(8,9)18-29(2,3)4)16-23(25)27-24-17-22(13-15-26(24)36-28(27)34)32(10,11)19-30(5,6)7/h12-17,27H,18-19H2,1-11H3",UHPDROGOQWZCNC-UHFFFAOYSA-N,CC(=O)Oc1ccc(cc1C2C(=O)Oc3ccc(cc23)C(C)(C)CC(C)(C)C)C(C)(C)CC(C)(C)C,-6.692582562,0.0,1.0,G1,492.7,8.0904,145.867,36.0,4.0,0.0,4.0,6.0,196.0,2.0,0.0,1.0,3.0,52.6,217.3316431,2.156251446,1155.653689
4778,B-1561,p-methylphenoxyacetic acid,"InChI=1S/C9H10O3/c1-7-2-4-8(5-3-7)12-6-9(10)11/h2-5H,6H2,1H3,(H,10,11)",SFTDDFBJWUWKMN-UHFFFAOYSA-N,Cc1ccc(OCC(O)=O)cc1,-2.1414,0.0,1.0,G1,166.176,1.45842,44.3098,12.0,2.0,1.0,3.0,3.0,64.0,1.0,0.0,0.0,1.0,46.53,70.59553054,2.529889074,263.6070663
7717,C-1352,nalidixic acid methyl ester;  methyl  nalidixate,"InChI=1S/C13H14N2O3/c1-4-15-7-10(13(17)18-3)11(16)9-6-5-8(2)14-12(9)15/h5-7H,4H2,1-3H3",HAXZNPSPJMKMIQ-UHFFFAOYSA-N,CCN1C=C(C(=O)OC)C(=O)C2=C1N=C(C)C=C2,-2.7,0.0,1.0,G1,246.266,1.51142,67.7535,18.0,5.0,0.0,5.0,2.0,94.0,2.0,0.0,0.0,2.0,61.19,104.0236351,2.868876892,673.7260714
8704,E-100,"1,2-dibromoethane",InChI=1S/C2H4Br2/c3-1-2-4/h1-2H2,PAAZPARNPHGIKF-UHFFFAOYSA-N,BrCCBr,-1.68,0.0121,2.0,G3,187.862,1.7762,27.588,4.0,0.0,0.0,2.0,1.0,26.0,0.0,0.0,0.0,0.0,0.0,42.83928835,1.974744871,6.0
33,A-49,undec-10-enoic acid,"InChI=1S/C11H20O2/c1-2-3-4-5-6-7-8-9-10-11(12)13/h2H,1,3-10H2,(H,12,13)",FRPZMMHWLSIFAZ-UHFFFAOYSA-N,OC(=O)CCCCCCCCC=C,-3.552826145,0.115494384,3.0,G5,184.279,3.3778,54.7688,13.0,1.0,1.0,2.0,9.0,76.0,0.0,0.0,0.0,0.0,37.3,80.65482499,2.909286733,141.0257051
8158,C-2111,"proxicromil analog iii;  cyclohexano(6,7)chromone-2-carboxylic acid","InChI=1S/C14H12O4/c15-11-7-13(14(16)17)18-12-6-9-4-2-1-3-8(9)5-10(11)12/h5-7H,1-4H2,(H,16,17)",AGIKBILZJVNZNW-UHFFFAOYSA-N,OC(=O)C1=CC(=O)C2=C(O1)C=C3CCCCC3=C2,-1.05,0.0,1.0,G1,244.246,2.37,66.0853,18.0,3.0,1.0,4.0,1.0,92.0,2.0,0.0,1.0,3.0,67.51,102.8540418,2.303712274,696.7415886
3132,A-5206,tert-butyl hydroperoxide,"InChI=1S/C4H10O2/c1-4(2,3)6-5/h5H,1-3H3",CIHOLLKRGTVIJN-UHFFFAOYSA-N,CC(C)(C)OO,0.884647226,0.0,1.0,G1,90.122,1.2745,23.4668,6.0,2.0,1.0,2.0,0.0,38.0,0.0,0.0,0.0,0.0,29.46,37.67115167,3.168489873,35.30296891
9117,F-340,"5-butyl-5-ethyl-1,3-diazinane-2,4,6-trione","InChI=1S/C10H16N2O3/c1-3-5-6-10(4-2)7(13)11-9(15)12-8(10)14/h3-6H2,1-2H3,(H2,11,12,13,14,15)",STDBAQMTJLUMFW-UHFFFAOYSA-N,CCCCC1(CC)C(=O)NC(=O)NC1=O,-1.67,0.020548047,3.0,G5,212.249,0.939,53.9304,15.0,3.0,2.0,5.0,4.0,84.0,0.0,1.0,1.0,1.0,75.27,88.60218957,2.891339554,279.0426262
6608,B-3637,p-bromotoluene,"InChI=1S/C7H7Br/c1-6-2-4-7(8)5-3-6/h2-5H,1H3",ZBTMRBYMKUEVEU-UHFFFAOYSA-N,Cc1ccc(Br)cc1,-3.1917,0.0,1.0,G1,171.037,2.75752,38.879,8.0,0.0,0.0,1.0,0.0,42.0,1.0,0.0,0.0,1.0,0.0,57.66389284,3.032455532,143.2466295
2242,A-3716,"4-amino-3,6-dichloropyridine-2-carboxylic acid","InChI=1S/C6H4Cl2N2O2/c7-3-1-2(9)4(8)5(10-3)6(11)12/h1H,(H2,9,10)(H,11,12)",NIXXQNOQHKNPEJ-UHFFFAOYSA-N,Nc1cc(Cl)nc(C(O)=O)c1Cl,-0.004250052,0.007291,2.0,G3,207.016,1.6688,45.6287,12.0,3.0,2.0,6.0,1.0,64.0,1.0,0.0,0.0,1.0,76.21,77.91817222,3.373859011,340.5651247
1699,A-2807,"1,3-dihydroxypropan-2-one","InChI=1S/C3H6O3/c4-1-3(6)2-5/h4-5H,1-2H2",RXKJFZQQPQGTFL-UHFFFAOYSA-N,OCC(=O)CO,1.013864214,0.0,1.0,G1,90.078,-1.4599,19.1786,6.0,3.0,2.0,3.0,2.0,36.0,0.0,0.0,0.0,0.0,57.53,35.21912486,2.988160882,44.0
6892,B-4187,chlorpropham,"InChI=1S/C10H12ClNO2/c1-7(2)14-10(13)12-9-5-3-4-8(11)6-9/h3-7H,1-2H3,(H,12,13)",CWJSHJJYOPWUGX-UHFFFAOYSA-N,CC(C)OC(=O)Nc1cccc(Cl)c1,-3.3804,0.0,1.0,G1,213.664,3.2969,56.6917,14.0,2.0,1.0,4.0,2.0,76.0,1.0,0.0,0.0,1.0,38.33,88.01936732,2.559925674,325.6529664
7899,C-1712,8-methylpurine,"InChI=1S/C6H6N4/c1-4-9-5-2-7-3-8-6(5)10-4/h2-3H,1H3,(H,7,8,9,10)",UZQYFLWZKIMYKS-UHFFFAOYSA-N,CC1=NC2=C([NH]1)C=NC=N2,-0.41,0.01355,2.0,G3,134.142,0.66132,36.4207,10.0,3.0,1.0,4.0,0.0,50.0,2.0,0.0,0.0,2.0,54.46,57.34611413,2.876510167,318.2753029
9673,F-1138,1-[2-[(1-ethoxy-1-oxo-4-phenylbutan-2-yl)amino]propyl]pyrrolidine-2-carboxylic acid,"InChI=1S/C20H30N2O4/c1-3-26-20(25)17(12-11-16-8-5-4-6-9-16)21-15(2)14-22-13-7-10-18(22)19(23)24/h4-6,8-9,15,17-18,21H,3,7,10-14H2,1-2H3,(H,23,24)",MTDIDKAIUDTPOH-UHFFFAOYSA-N,CCOC(=O)C(CCC1=CC=CC=C1)NC(C)CN1CCCC1C(=O)O,-1.24,0.0,1.0,G1,362.47,2.078,100.0125,26.0,5.0,2.0,6.0,10.0,144.0,1.0,1.0,1.0,2.0,78.87,155.0752806,1.916526064,578.4337302
7977,C-1839,n1-isonicotinoyl-n2-hexanoylhydrazine,"InChI=1S/C12H17N3O2/c1-2-3-4-5-11(16)14-15-12(17)10-6-8-13-9-7-10/h6-9H,2-5H2,1H3,(H,14,16)(H,15,17)",BSPIUCWIDOJHQH-UHFFFAOYSA-N,CCCCCC(=O)NNC(=O)C1=CC=NC=C1,-1.24,0.0,1.0,G1,235.287,1.4229,63.9879,17.0,3.0,2.0,5.0,5.0,92.0,1.0,0.0,0.0,1.0,71.09,100.5985505,2.264526481,365.2733075
2333,A-3889,"(2R,3R,4R,5S)-2-(hydroxymethyl)piperidine-3,4,5-triol","InChI=1S/C6H13NO4/c8-2-3-5(10)6(11)4(9)1-7-3/h3-11H,1-2H2/t3-,4+,5-,6-/m1/s1",LXBIFEVIBLOUGU-JGWLITMVSA-N,OC[C@H]1NC[C@H](O)[C@@H](O)[C@@H]1O,0.404352043,0.0,1.0,G1,163.173,-2.9668,36.8969,11.0,5.0,5.0,5.0,1.0,66.0,0.0,1.0,1.0,1.0,92.95,64.28492764,2.516424271,129.7506907
9384,F-727,4-(diethylamino)-2-(4-methoxynaphthalen-1-yl)butan-2-ol,"InChI=1S/C19H27NO2/c1-5-20(6-2)14-13-19(3,21)17-11-12-18(22-4)16-10-8-7-9-15(16)17/h7-12,21H,5-6,13-14H2,1-4H3",PKRAIEMBBGSHDW-UHFFFAOYSA-N,CCN(CC)CCC(C)(O)C1=C2C=CC=CC2=C(OC)C=C1,-1.68,0.0,1.0,G1,301.43,3.7878,92.4758,22.0,3.0,1.0,3.0,7.0,120.0,2.0,0.0,0.0,2.0,32.7,133.0651593,2.365079869,617.8613347
620,A-1095,2-methyldecanenitrile,"InChI=1S/C11H21N/c1-3-4-5-6-7-8-9-11(2)10-12/h11H,3-9H2,1-2H3",XPCSGXMQGQGBKU-UHFFFAOYSA-N,CCCCCCCCC(C)C#N,-4.63242095,0.0,1.0,G1,167.296,3.89668,52.77,12.0,1.0,0.0,1.0,7.0,70.0,0.0,0.0,0.0,0.0,23.79,76.78125185,2.963924661,123.4560272
8301,C-2309,enoxacin,"InChI=1S/C15H17FN4O3/c1-2-19-8-10(15(22)23)12(21)9-7-11(16)14(18-13(9)19)20-5-3-17-4-6-20/h7-8,17H,2-6H2,1H3,(H,22,23)",IDYZIJYBMGIQMJ-UHFFFAOYSA-N,CCN1C=C(C(O)=O)C(=O)C2=C1N=C(N3CCNCC3)C(=C2)F,-2.92,0.0,1.0,G1,320.324,0.6633,83.677,23.0,6.0,2.0,8.0,3.0,122.0,2.0,1.0,1.0,3.0,87.46,130.903608,2.243584852,827.562288
545,A-975,Cobaltous acetate,"InChI=1S/2C2H4O2.Co/c2*1-2(3)4;/h2*1H3,(H,3,4);/q;;+2/p-2",QAHREYKOYSIQPH-UHFFFAOYSA-L,[Co++].CC([O-])=O.CC([O-])=O,0.29360437,0.00733667,2.0,G3,177.021,-2.4901,21.362,9.0,4.0,0.0,5.0,0.0,55.0,0.0,0.0,0.0,0.0,80.26,63.07145371,-7.2e-08,70.56842503
6825,B-4074,"4,4'-dichlorobiphenyl",InChI=1S/C12H8Cl2/c13-11-5-1-9(2-6-11)10-3-7-12(14)8-4-10/h1-8H,YTBRNEUEFCNVHC-UHFFFAOYSA-N,Clc1ccc(cc1)c2ccc(Cl)cc2,-6.5561,0.02195,2.0,G3,223.102,4.6604,61.898,14.0,0.0,0.0,2.0,1.0,70.0,2.0,0.0,0.0,2.0,0.0,93.09502978,2.39650904,371.5796467
4786,B-1573,"glycine, n-(ethoxycarbonyl)-, ethyl ester","InChI=1S/C7H13NO4/c1-3-11-6(9)5-8-7(10)12-4-2/h3-5H2,1-2H3,(H,8,10)",ORKAHUKYJCNDDI-UHFFFAOYSA-N,CCOC(=O)CNC(=O)OCC,-0.2435,0.0,1.0,G1,175.184,0.2956,41.6577,12.0,4.0,1.0,5.0,4.0,70.0,0.0,0.0,0.0,0.0,64.63,71.02890056,3.402570683,139.4853656
8818,E-789,2-Methylthiopteridine,"InChI=1S/C7H6N4S/c1-12-7-5-6(10-4-11-7)9-3-2-8-5/h2-4H,1H3",XKENOTHGZDIXRS-UHFFFAOYSA-N,c1cnc2c(SC)ncnc2n1,-1.76,0.3025,2.0,G3,178.22,1.1417,46.909,12.0,5.0,0.0,5.0,1.0,60.0,2.0,0.0,0.0,2.0,51.56,73.47971171,2.79096703,398.0334383
9837,G-1023,Reposal,"InChI=1S/C14H18N2O3/c1-2-14(11(17)15-13(19)16-12(14)18)10-6-4-8-3-5-9(10)7-8/h6,8-9H,2-5,7H2,1H3,(H2,15,16,17,18,19)",YGOGAACPYALXRT-UHFFFAOYSA-N,CCC1(C(=O)NC(=O)NC1=O)C2=CCC3CCC2C3,-2.696,0.0,1.0,G1,262.309,1.4952,67.9364,19.0,3.0,2.0,5.0,2.0,102.0,0.0,2.0,3.0,3.0,75.27,111.3606927,2.028581709,474.919545
3396,A-5601,"N-(4-chloro-2,5-dimethoxyphenyl)-3-hydroxy-4-[(E)-2-[2-methoxy-5-(phenylcarbamoyl)phenyl]diazen-1-yl]naphthalene-2-carboxamide","InChI=1S/C33H27ClN4O6/c1-42-27-14-13-20(32(40)35-21-10-5-4-6-11-21)16-26(27)37-38-30-22-12-8-7-9-19(22)15-23(31(30)39)33(41)36-25-18-28(43-2)24(34)17-29(25)44-3/h4-18,37H,1-3H3,(H,35,40)(H,36,41)/b38-30-",GBDJNEJIVMFTOJ-ZREQDNEKSA-N,COc1ccc(cc1N\N=C2/C(=O)C(=Cc3ccccc23)C(=O)Nc4cc(OC)c(Cl)cc4OC)C(=O)Nc5ccccc5,-7.846560339,0.0,1.0,G1,611.054,6.0391,170.1606,44.0,8.0,3.0,11.0,9.0,222.0,4.0,0.0,1.0,5.0,127.35,257.8352439,1.44989645,1820.705851
6818,B-4066,n-nitrosodibutylamine,"InChI=1S/C8H18N2O/c1-3-5-7-10(9-11)8-6-4-2/h3-8H2,1-2H3",YGJHZCLPZAZIHH-UHFFFAOYSA-N,CCCCN(CCCC)N=O,-2.0955,0.0,1.0,G1,158.245,2.57,47.184,11.0,2.0,0.0,3.0,7.0,66.0,0.0,0.0,0.0,0.0,32.67,68.7185475,3.326343011,88.09284782
9059,F-229,N-butylsulfonylbutane-1-sulfonamide,"InChI=1S/C8H19NO4S2/c1-3-5-7-14(10,11)9-15(12,13)8-6-4-2/h9H,3-8H2,1-2H3",USMKZCJHQPVMTB-UHFFFAOYSA-N,CCCCS(=O)(=O)NS(=O)(=O)CCCC,-0.76,0.0,1.0,G1,257.377,0.8358,60.5253,15.0,4.0,1.0,7.0,8.0,92.0,0.0,0.0,0.0,0.0,80.31,92.3652598,4.316456425,322.102908
9057,F-223,[2-(carbamoyloxymethyl)-2-methylpentyl] carbamate,"InChI=1S/C9H18N2O4/c1-3-4-9(2,5-14-7(10)12)6-15-8(11)13/h3-6H2,1-2H3,(H2,10,12)(H2,11,13)",NPPQSCRMBWNHMW-UHFFFAOYSA-N,CCCC(C)(COC(N)=O)COC(N)=O,-1.74,0.061573549,4.0,G5,218.253,0.9834,54.0858,15.0,4.0,2.0,6.0,6.0,88.0,0.0,0.0,0.0,0.0,104.64,88.888704,4.165604765,212.152234
9291,F-623,"(1E,2Z)-4-Ethyl-N,N'-dihydroxy-1,2-cyclohexanediimine","InChI=1S/C8H14N2O2/c1-2-6-3-4-7(9-11)8(5-6)10-12/h6,11-12H,2-5H2,1H3",GBAJQUQTRTUWDV-UHFFFAOYSA-N,CCC1CCC(=NO)C(=NO)C1,-1.83,0.0,1.0,G1,170.212,1.8569,46.075,12.0,4.0,2.0,4.0,1.0,68.0,0.0,1.0,1.0,1.0,65.18,71.57520415,2.666680729,211.1034
7399,C-648,"2,3,6-trichlorobiphenyl",InChI=1S/C12H7Cl3/c13-9-6-7-10(14)12(15)11(9)8-4-2-1-3-5-8/h1-7H,LVROLHVSYNLFBE-UHFFFAOYSA-N,ClC1=CC=C(Cl)C(=C1Cl)C2=CC=CC=C2,-6.29,0.1001,2.0,G3,257.547,5.3138,66.908,15.0,0.0,0.0,3.0,1.0,76.0,2.0,0.0,0.0,2.0,0.0,103.398296,2.675456692,477.7259471
8010,C-1881,7-dimethylaminopteridine,"InChI=1S/C8H9N5/c1-13(2)7-4-10-6-3-9-5-11-8(6)12-7/h3-5H,1-2H3",MPTKEBUBIGZGJH-UHFFFAOYSA-N,CN(C)C1=NC2=C(C=NC=N2)N=C1,-0.09,0.035,2.0,G3,175.195,0.4858,49.455,13.0,5.0,0.0,5.0,1.0,66.0,2.0,0.0,0.0,2.0,54.8,75.48137747,2.61987387,425.5588296
7581,C-1060,meloxicam,"InChI=1S/C14H13N3O4S2/c1-8-7-15-14(22-8)16-13(19)11-12(18)9-5-3-4-6-10(9)23(20,21)17(11)2/h3-7,18H,1-2H3,(H,15,16,19)",ZRVUJXDFFKFLMG-UHFFFAOYSA-N,CN1C(=C(O)C2=CC=CC=C2[S]1(=O)=O)C(=O)NC3=NC=C(C)S3,-1.92,0.0,1.0,G1,351.409,1.95092,86.4203,23.0,6.0,2.0,9.0,2.0,120.0,2.0,0.0,1.0,3.0,99.6,136.5040126,2.08682722,931.0039543
4987,B-1804,"1,3-benzenediol, 4-cyclohexyl-","InChI=1S/C12H16O2/c13-10-6-7-11(12(14)8-10)9-4-2-1-3-5-9/h6-9,13-14H,1-5H2",LSEHCENPUMUIKC-UHFFFAOYSA-N,Oc1ccc(C2CCCCC2)c(O)c1,-2.5763,0.0,1.0,G1,192.258,3.1455,55.5976,14.0,2.0,2.0,2.0,1.0,76.0,1.0,1.0,1.0,2.0,40.46,84.20369216,2.215971726,314.0978098
3292,A-5412,sodium; chromium(+3) cation; 3-oxido-4-(1-oxido-8-sulfonatonaphthalen-2-yl)diazenylnaphthalene-1-sulfonate,"InChI=1S/C20H14N2O8S2.Cr.Na/c23-15-10-17(32(28,29)30)12-5-1-2-6-13(12)19(15)22-21-14-9-8-11-4-3-7-16(31(25,26)27)18(11)20(14)24;;/h1-10,23-24H,(H,25,26,27)(H,28,29,30);;/q;+3;+1/p-4",FZEAZTGOZSYASU-UHFFFAOYSA-J,[Na+].[Cr+3].[O-]c1cc(c2ccccc2c1N=Nc3ccc4cccc(c4c3[O-])[S]([O-])(=O)=O)[S]([O-])(=O)=O,-1.171951452,0.0,1.0,G1,545.426,-0.6347,106.8904,34.0,10.0,0.0,14.0,4.0,167.0,4.0,0.0,0.0,4.0,185.24,226.4312564,2.04e-06,1658.814491
6652,B-3737,pimelic acid,"InChI=1S/C7H12O4/c8-6(9)4-2-1-3-5-7(10)11/h1-5H2,(H,8,9)(H,10,11)",WLJVNTCWHIRURA-UHFFFAOYSA-N,OC(=O)CCCCCC(O)=O,-0.5056,0.0,1.0,G1,160.169,1.1061,38.3566,11.0,2.0,2.0,4.0,6.0,64.0,0.0,0.0,0.0,0.0,74.6,64.84041542,3.025608337,125.376
1278,A-2218,"1-(4-chlorophenyl)-3-(3,4-dichlorophenyl)urea","InChI=1S/C13H9Cl3N2O/c14-8-1-3-9(4-2-8)17-13(19)18-10-5-6-11(15)12(16)7-10/h1-7H,(H2,17,18,19)",ICUTUKXCWQYESQ-UHFFFAOYSA-N,Clc1ccc(NC(=O)Nc2ccc(Cl)c(Cl)c2)cc1,-6.45772642,0.520696343,2.0,G2,315.587,5.2908,80.5554,19.0,1.0,2.0,6.0,2.0,98.0,2.0,0.0,0.0,2.0,41.13,125.0244846,2.006424902,599.3373665
3936,B-445,4-ethylmorpholine,"InChI=1S/C6H13NO/c1-2-7-3-5-8-6-4-7/h2-6H2,1H3",HVCNXQOWACZAFN-UHFFFAOYSA-N,CCN1CCOCC1,0.9386,0.259259682,2.0,G3,115.176,0.3385,32.933,8.0,2.0,0.0,2.0,1.0,48.0,0.0,1.0,1.0,1.0,12.47,50.43150935,2.125016255,59.54887502
4327,B-1012,"1,3-dioxolane, 2-methyl-","InChI=1S/C4H8O2/c1-4-5-2-3-6-4/h4H,2-3H2,1H3",HTWIZMNMTWYQRN-UHFFFAOYSA-N,CC1OCCO1,0.8789,0.0,1.0,G1,88.106,0.3792,21.366,6.0,2.0,0.0,2.0,0.0,36.0,0.0,1.0,1.0,1.0,18.46,37.05533668,2.18410557,38.81274391
5262,B-2102,1-hexen-3-ol,"InChI=1S/C6H12O/c1-3-5-6(7)4-2/h4,6-7H,2-3,5H2,1H3",BVOSSZSHBZQJOI-UHFFFAOYSA-N,CCCC(O)C=C,-0.5993,0.0,1.0,G1,100.161,1.3334,31.1118,7.0,1.0,1.0,1.0,3.0,42.0,0.0,0.0,0.0,0.0,20.23,44.66859232,2.984360233,50.14170945
7319,C-406,triforine,"InChI=1S/C10H14Cl6N4O2/c11-9(12,13)7(17-5-21)19-1-2-20(4-3-19)8(18-6-22)10(14,15)16/h5-8H,1-4H2,(H,17,21)(H,18,22)",RROQIUMZODEXOR-UHFFFAOYSA-N,ClC(Cl)(Cl)C(NC=O)N1CCN(CC1)C(NC=O)C(Cl)(Cl)Cl,-4.16,0.015,2.0,G3,434.966,1.4886,89.7014,22.0,4.0,2.0,12.0,6.0,128.0,0.0,1.0,1.0,1.0,64.68,157.7799322,2.715463549,344.5934898
2899,A-4853,"1,3-xylene; cyclopentane; ethylbenzene; pentane; toluene","InChI=1S/2C8H10.C7H8.C5H10.C5H12/c1-7-4-3-5-8(2)6-7;1-2-8-6-4-3-5-7-8;1-7-5-3-2-4-6-7;1-2-4-5-3-1;1-3-5-4-2/h3-6H,1-2H3;3-7H,2H2,1H3;2-6H,1H3;1-5H2;3-5H2,1-2H3",KXUYVAICGNQKKK-UHFFFAOYSA-N,CCCCC.CCc1ccccc1.Cc2ccccc2.Cc3cccc(C)c3.C4CCCC4,-3.172955944,0.258119032,3.0,G5,446.763,10.69446,151.199,33.0,0.0,0.0,0.0,3.0,182.0,3.0,1.0,1.0,4.0,0.0,206.0372167,3.94e-07,727.4516998
6215,B-3181,"2-propenoic acid, 2,3-dibromo-3-iodo-","InChI=1S/C3HBr2IO2/c4-1(2(5)6)3(7)8/h(H,7,8)",AORLFLUMZXGBEY-UHFFFAOYSA-N,OC(=O)C(Br)=C(Br)I,-1.0197,0.0,1.0,G1,355.751,2.4649,46.5358,8.0,1.0,1.0,5.0,1.0,46.0,0.0,0.0,0.0,0.0,37.3,76.73222141,4.226619287,138.2188491
145,A-242,"5-nitro-1,3-dihydro-2H-benzimidazol-2-one","InChI=1S/C7H5N3O3/c11-7-8-5-2-1-4(10(12)13)3-6(5)9-7/h1-3H,(H2,8,9,11)",DLJZIPVEVJOKHB-UHFFFAOYSA-N,[O-][N+](=O)c1ccc2NC(=O)Nc2c1,-3.274087547,0.0,1.0,G1,179.135,0.7644,45.5738,13.0,3.0,2.0,6.0,1.0,66.0,2.0,0.0,0.0,2.0,91.79,71.35637388,2.743519994,525.0074434
2624,A-4412,"N,N-diisobutylformamide","InChI=1S/C9H19NO/c1-8(2)5-10(7-11)6-9(3)4/h7-9H,5-6H2,1-4H3",NTYICSDTCGMBQM-UHFFFAOYSA-N,CC(C)CN(CC(C)C)C=O,-1.082666634,0.0,1.0,G1,157.257,1.7568,47.313,11.0,1.0,0.0,2.0,5.0,66.0,0.0,0.0,0.0,0.0,20.31,69.58014371,3.665842809,100.1303606
3073,A-5130,barium(2+) ion bis(2-ethylhexanoate),"InChI=1S/2C8H16O2.Ba/c2*1-3-5-6-7(4-2)8(9)10;/h2*7H,3-6H2,1-2H3,(H,9,10);/q;;+2/p-2",VJFFDDQGMMQGTQ-UHFFFAOYSA-L,[Ba++].CCCCC(CC)C([O-])=O.CCCCC(CC)C([O-])=O,-0.905288847,0.251490671,2.0,G3,423.74,1.5246,82.38,21.0,4.0,0.0,5.0,10.0,120.0,0.0,0.0,0.0,0.0,80.26,169.7068662,-2.95e-07,230.6615312
1845,A-3017,sodium 3-[(E)-2-[5-(diethylsulfamoyl)-2-methoxyphenyl]diazen-1-yl]-4-hydroxynaphthalene-1-sulfonate,"InChI=1S/C21H23N3O7S2.Na/c1-4-24(5-2)32(26,27)14-10-11-19(31-3)17(12-14)22-23-18-13-20(33(28,29)30)15-8-6-7-9-16(15)21(18)25;/h6-13,22H,4-5H2,1-3H3,(H,28,29,30);/q;+1/p-1/b23-18+;",AGXNLHROVWJXBE-XHMOQMQQSA-M,[Na+].CCN(CC)[S](=O)(=O)c1ccc(OC)c(N\N=C\2C=C(c3ccccc3C2=O)[S]([O-])(=O)=O)c1,-2.466753911,0.0,1.0,G1,515.545,-0.7198,122.6052,34.0,9.0,1.0,13.0,8.0,176.0,2.0,0.0,1.0,3.0,145.27,220.3305754,4.08e-06,1366.485884
664,A-1155,"1,3-dimethyl benzene-1,3-dicarboxylate","InChI=1S/C10H10O4/c1-13-9(11)7-4-3-5-8(6-7)10(12)14-2/h3-6H,1-2H3",VNGOYPQMJFJDLV-UHFFFAOYSA-N,COC(=O)c1cccc(c1)C(=O)OC,-2.825819918,0.0,1.0,G1,194.186,1.2598,49.121,14.0,4.0,0.0,4.0,2.0,74.0,1.0,0.0,0.0,1.0,52.6,81.44130624,3.006336626,325.6445604
2588,A-4337,3-[(2-ethylhexyl)oxy]propan-1-amine,"InChI=1S/C11H25NO/c1-3-5-7-11(4-2)10-13-9-6-8-12/h11H,3-10,12H2,1-2H3",DVFGEIYOLIFSRX-UHFFFAOYSA-N,CCCCC(CC)COCCCN,-1.096509119,0.0,1.0,G1,187.327,2.5682,57.7964,13.0,2.0,1.0,2.0,9.0,80.0,0.0,0.0,0.0,0.0,35.25,82.8421081,3.253702897,96.09106855
2762,A-4613,diphenyl methylphosphonate,"InChI=1S/C13H13O3P/c1-17(14,15-12-8-4-2-5-9-12)16-13-10-6-3-7-11-13/h2-11H,1H3",HPUPGAFDTWIMBR-UHFFFAOYSA-N,C[P](=O)(Oc1ccccc1)Oc2ccccc2,-2.201708674,0.0,1.0,G1,248.218,3.9673,67.6705,17.0,3.0,0.0,4.0,4.0,88.0,2.0,0.0,0.0,2.0,35.53,100.5434703,2.074980323,465.2024886
3873,B-350,quinoxaline,InChI=1S/C8H6N2/c1-2-4-8-7(3-1)9-5-6-10-8/h1-6H,XSCHRSMBECNVNS-UHFFFAOYSA-N,c1ccc2nccnc2c1,0.7051,0.0,1.0,G1,130.15,1.6298,39.538,10.0,2.0,0.0,2.0,0.0,48.0,2.0,0.0,0.0,2.0,25.78,58.55236361,2.888051602,278.2344634
5634,B-2524,"benzaldehyde, 4-hydroxy-3-methoxy-2-methyl-","InChI=1S/C9H10O3/c1-6-7(5-10)3-4-8(11)9(6)12-2/h3-5,11H,1-2H3",NHXMRQITQSBVLJ-UHFFFAOYSA-N,COc1c(C)c(C=O)ccc1O,-1.3755,0.0,1.0,G1,166.176,1.52172,44.7833,12.0,3.0,1.0,3.0,2.0,64.0,1.0,0.0,0.0,1.0,46.53,70.59553054,3.330537499,304.8871119
722,A-1255,"(4-methoxy-2,2-dimethyl-3a,4,6,6a-tetrahydrofuro[3,4-d][1,3]dioxol-6-yl)methyl 4-methylbenzenesulfonate","InChI=1S/C16H22O7S/c1-10-5-7-11(8-6-10)24(17,18)20-9-12-13-14(15(19-4)21-12)23-16(2,3)22-13/h5-8,12-15H,9H2,1-4H3",IAPMZKRZMYQZSW-UHFFFAOYSA-N,COC1OC(CO[S](=O)(=O)c2ccc(C)cc2)C3OC(C)(C)OC13,-4.156442533,0.0,1.0,G1,358.412,1.59172,83.8118,24.0,7.0,0.0,8.0,5.0,134.0,1.0,2.0,2.0,3.0,80.29,141.4712904,1.686881259,682.8824066
3884,B-362,"benzaldehyde, 2,5-dimethoxy-","InChI=1S/C9H10O3/c1-11-8-3-4-9(12-2)7(5-8)6-10/h3-6H,1-2H3",AFUKNJHPZAVHGQ-UHFFFAOYSA-N,COc1ccc(OC)c(C=O)c1,-2.3202,0.0,1.0,G1,166.176,1.5163,44.9335,12.0,3.0,0.0,3.0,3.0,64.0,1.0,0.0,0.0,1.0,35.53,70.91484202,3.099938616,281.1021788
9892,H-391,1-Mentanol  ,"InChI=1S/C10H20O/c1-8(2)10(3)6-4-5-9(11)7-10/h8-9,11H,4-7H2,1-3H3",GXVKKGSUMOYXRP-UHFFFAOYSA-N,CC(C)C1(C)CCCC(O)C1,-0.6,0.0,1.0,G1,156.269,2.5836,47.4198,11.0,1.0,1.0,1.0,1.0,66.0,0.0,1.0,1.0,1.0,20.23,69.81213266,2.552570762,130.8344669
6990,B-4321,methyl benzenesulfonate,"InChI=1S/C7H8O3S/c1-10-11(8,9)7-5-3-2-4-6-7/h2-6H,1H3",CZXGXYBOQYQXQD-UHFFFAOYSA-N,CO[S](=O)(=O)c1ccccc1,-1.7419,0.0,1.0,G1,172.205,1.0217,40.6368,11.0,3.0,0.0,4.0,2.0,60.0,1.0,0.0,0.0,1.0,43.37,65.74429272,3.139717377,314.7987398
2471,A-4133,1-ethoxybutane,"InChI=1S/C6H14O/c1-3-5-6-7-4-2/h3-6H2,1-2H3",PZHIWRCQKBBTOW-UHFFFAOYSA-N,CCCCOCC,-1.54996066,0.0,1.0,G1,102.177,1.823,31.401,7.0,1.0,0.0,1.0,4.0,44.0,0.0,0.0,0.0,0.0,9.23,45.67750683,2.447472888,23.3609904